
     Program MATDYN v.6.4 starts on  7May2019 at 20: 0:53 

     This program is part of the open-source Quantum ESPRESSO suite
     for quantum simulation of materials; please cite
         "P. Giannozzi et al., J. Phys.:Condens. Matter 21 395502 (2009);
         "P. Giannozzi et al., J. Phys.:Condens. Matter 29 465901 (2017);
          URL http://www.quantum-espresso.org", 
     in publications or presentations arising from this work. More details at
     http://www.quantum-espresso.org/quote

     Parallel version (MPI), running on    16 processors

     MPI processes distributed on     1 nodes
     R & G space division:  proc/nbgrp/npool/nimage =      16
 mass for atomic type   1 not given; uses mass from file libi.fc                                                                                                                                                                                                                                                         
 mass for atomic type   2 not given; uses mass from file libi.fc                                                                                                                                                                                                                                                         
Norm of the difference between old and new effective charges:    0.00000000000000000000
Norm of the difference between old and new force-constants:   0.00000512075820628630
     Message from routine matdyn:
     Z* not found in file libi.fc, TO-LO splitting at q=0 will be absent!
     A direction for q was not specified:TO-LO splitting will be absent
     Message from routine matdyn:
     Z* not found in file libi.fc, TO-LO splitting at q=0 will be absent!
     A direction for q was not specified:TO-LO splitting will be absent

  Gamma lines for all modes [Rydberg] 

Norm of the difference between old and new effective charges:    0.00000000000000000000
Norm of the difference between old and new force-constants:   0.00000768793449921634
 Broadening   0.0050
       1
 0.000001156 0.000000489 0.000000489 0.000002288 0.000002288 0.000000507
       2
 0.000001150 0.000000490 0.000000489 0.000002283 0.000002278 0.000000509
       3
 0.000001132 0.000000494 0.000000489 0.000002265 0.000002250 0.000000515
       4
 0.000001103 0.000000500 0.000000490 0.000002238 0.000002208 0.000000524
       5
 0.000001068 0.000000510 0.000000493 0.000002201 0.000002161 0.000000540
       6
 0.000001029 0.000000525 0.000000499 0.000002156 0.000002118 0.000000561
       7
 0.000000991 0.000000546 0.000000511 0.000002105 0.000002089 0.000000590
       8
 0.000000957 0.000000573 0.000000528 0.000002051 0.000002081 0.000000627
       9
 0.000000931 0.000000607 0.000000553 0.000001994 0.000002098 0.000000672
      10
 0.000000916 0.000000648 0.000000585 0.000001938 0.000002143 0.000000724
      11
 0.000000914 0.000000694 0.000000626 0.000001882 0.000002211 0.000000781
      12
 0.000000925 0.000000746 0.000000673 0.000001830 0.000002297 0.000000842
      13
 0.000000949 0.000000803 0.000000726 0.000001782 0.000002391 0.000000905
      14
 0.000000983 0.000000863 0.000000783 0.000001739 0.000002482 0.000000965
      15
 0.000001025 0.000000925 0.000000843 0.000001702 0.000002561 0.000001020
      16
 0.000001072 0.000000989 0.000000902 0.000001671 0.000002616 0.000001068
      17
 0.000001118 0.000001055 0.000000958 0.000001645 0.000002644 0.000001107
      18
 0.000001162 0.000001121 0.000001010 0.000001625 0.000002640 0.000001136
      19
 0.000001199 0.000001190 0.000001055 0.000001609 0.000002607 0.000001154
      20
 0.000001227 0.000001260 0.000001092 0.000001597 0.000002551 0.000001163
      21
 0.000001244 0.000001332 0.000001119 0.000001588 0.000002481 0.000001164
      22
 0.000001249 0.000001406 0.000001136 0.000001580 0.000002408 0.000001161
      23
 0.000001242 0.000001142 0.000001480 0.000001571 0.000002343 0.000001155
      24
 0.000001225 0.000001138 0.000001553 0.000001561 0.000002297 0.000001149
      25
 0.000001198 0.000001124 0.000001623 0.000001546 0.000002278 0.000001147
      26
 0.000001163 0.000001101 0.000001686 0.000001525 0.000002291 0.000001149
      27
 0.000001122 0.000001069 0.000001740 0.000001496 0.000002337 0.000001157
      28
 0.000001077 0.000001029 0.000001781 0.000001458 0.000002414 0.000001170
      29
 0.000001028 0.000000981 0.000001807 0.000001409 0.000002517 0.000001190
      30
 0.000000978 0.000000926 0.000001816 0.000001350 0.000002639 0.000001212
      31
 0.000000927 0.000000866 0.000001810 0.000001279 0.000002773 0.000001237
      32
 0.000000876 0.000000801 0.000001792 0.000001199 0.000002914 0.000001261
      33
 0.000000826 0.000000733 0.000001765 0.000001110 0.000003060 0.000001281
      34
 0.000000778 0.000000663 0.000001736 0.000001014 0.000003212 0.000001297
      35
 0.000000731 0.000000593 0.000001716 0.000000916 0.000003379 0.000001306
      36
 0.000000688 0.000000527 0.000001713 0.000000817 0.000003569 0.000001307
      37
 0.000000646 0.000000465 0.000001738 0.000000722 0.000003796 0.000001301
      38
 0.000000606 0.000000414 0.000001800 0.000000634 0.000004075 0.000001287
      39
 0.000000559 0.000000381 0.000001907 0.000000555 0.000004420 0.000001267
      40
 0.000000496 0.000000380 0.000002064 0.000000489 0.000004840 0.000001244
      41
 0.000000430 0.000000396 0.000002270 0.000000435 0.000005340 0.000001218
      42
 0.000000387 0.000000404 0.000002524 0.000000396 0.000005918 0.000001192
      43
 0.000000367 0.000000403 0.000002818 0.000000370 0.000006560 0.000001167
      44
 0.000000363 0.000000399 0.000003138 0.000000356 0.000007247 0.000001145
      45
 0.000000369 0.000000395 0.000003471 0.000000352 0.000007951 0.000001127
      46
 0.000000382 0.000000391 0.000003797 0.000000355 0.000001112 0.000008636
      47
 0.000000398 0.000000388 0.000004098 0.000000363 0.000001102 0.000009267
      48
 0.000000414 0.000000386 0.000004355 0.000000373 0.000001094 0.000009804
      49
 0.000000427 0.000000384 0.000004552 0.000000382 0.000001089 0.000010215
      50
 0.000000436 0.000000384 0.000004676 0.000000388 0.000001087 0.000010473
      51
 0.000000439 0.000000383 0.000004718 0.000000390 0.000001086 0.000010562
      52
 0.000000438 0.000000383 0.000004722 0.000000398 0.000001103 0.000010595
      53
 0.000000433 0.000000381 0.000004734 0.000000419 0.000001153 0.000010693
      54
 0.000000426 0.000000378 0.000004753 0.000000454 0.000001233 0.000010853
      55
 0.000000417 0.000000375 0.000004777 0.000000501 0.000011070 0.000001339
      56
 0.000000406 0.000000371 0.000004804 0.000000556 0.000011338 0.000001466
      57
 0.000000393 0.000000367 0.000004832 0.000000617 0.000011648 0.000001607
      58
 0.000000378 0.000000363 0.000004858 0.000000681 0.000011991 0.000001754
      59
 0.000000362 0.000000359 0.000004878 0.000000744 0.000012355 0.000001900
      60
 0.000000346 0.000000356 0.000004890 0.000000803 0.000012731 0.000002036
      61
 0.000000330 0.000000354 0.000004891 0.000000853 0.000013104 0.000002154
      62
 0.000000313 0.000000352 0.000004877 0.000000892 0.000013465 0.000002247
      63
 0.000000297 0.000000351 0.000004845 0.000000918 0.000013801 0.000002309
      64
 0.000000282 0.000000351 0.000004795 0.000000927 0.000014100 0.000002335
      65
 0.000000267 0.000000351 0.000004723 0.000000919 0.000014353 0.000002321
      66
 0.000000253 0.000000351 0.000004629 0.000000893 0.000014551 0.000002265
      67
 0.000000240 0.000000351 0.000004513 0.000000850 0.000014686 0.000002168
      68
 0.000000227 0.000000350 0.000004373 0.000000789 0.000014751 0.000002031
      69
 0.000000216 0.000000347 0.000004213 0.000000713 0.000014743 0.000001859
      70
 0.000000205 0.000000343 0.000004032 0.000000626 0.000014660 0.000001657
      71
 0.000000194 0.000000337 0.000003833 0.000000530 0.000014500 0.000001433
      72
 0.000000184 0.000000328 0.000003619 0.000000430 0.000014265 0.000001197
      73
 0.000000174 0.000000317 0.000003392 0.000000331 0.000013960 0.000000958
      74
 0.000000164 0.000000304 0.000003157 0.000000237 0.000013588 0.000000727
      75
 0.000000154 0.000000288 0.000002915 0.000000155 0.000013157 0.000000516
      76
 0.000000145 0.000000269 0.000002672 0.000000089 0.000012674 0.000000337
      77
 0.000000135 0.000000249 0.000002430 0.000000044 0.000012150 0.000000201
      78
 0.000000125 0.000000227 0.000002192 0.000000026 0.000011593 0.000000119
      79
 0.000000115 0.000000203 0.000001961 0.000000038 0.000011016 0.000000100
      80
 0.000000105 0.000000179 0.000001741 0.000000084 0.000010428 0.000000152
      81
 0.000000095 0.000000155 0.000001532 0.000000167 0.000009841 0.000000280
      82
 0.000000085 0.000000131 0.000001336 0.000000289 0.000009264 0.000000490
      83
 0.000000076 0.000000108 0.000001156 0.000000449 0.000008708 0.000000783
      84
 0.000000066 0.000000086 0.000000990 0.000000648 0.000008180 0.000001157
      85
 0.000000058 0.000000066 0.000000840 0.000000883 0.000007689 0.000001611
      86
 0.000000050 0.000000048 0.000000705 0.000001152 0.000007238 0.000002137
      87
 0.000000042 0.000000033 0.000000585 0.000001451 0.000006834 0.000002728
      88
 0.000000035 0.000000020 0.000000480 0.000001774 0.000006477 0.000003374
      89
 0.000000029 0.000000010 0.000000389 0.000002117 0.000006169 0.000004062
      90
 0.000000023 0.000000002 0.000000310 0.000002471 0.000005909 0.000004778
      91
 0.000000018-0.000000003 0.000000243 0.000002830 0.000005694 0.000005506
      92
 0.000000014-0.000000007 0.000000186 0.000003186 0.000005522 0.000006232
      93
 0.000000011-0.000000008 0.000000140 0.000003531 0.000005387 0.000006938
      94
 0.000000008-0.000000009 0.000000102 0.000003858 0.000005286 0.000007608
      95
 0.000000006-0.000000008 0.000000071 0.000004159 0.000005212 0.000008226
      96
 0.000000004-0.000000006 0.000000047 0.000004427 0.000005160 0.000008777
      97
 0.000000002-0.000000005 0.000000029 0.000004656 0.000005126 0.000009247
      98
 0.000000001-0.000000003 0.000000016 0.000004840 0.000005105 0.000009626
      99
 0.000000001-0.000000001 0.000000007 0.000004974 0.000005092 0.000009904
     100
 0.000000000-0.000000000 0.000000002 0.000005056 0.000005086 0.000010073
     101
 0.000000000 0.000000000-0.000000000 0.000005084 0.000005084 0.000010130
     102
-0.000000000-0.000000000 0.000000002 0.000005054 0.000005054 0.000010113
     103
-0.000000001-0.000000001 0.000000007 0.000004967 0.000004967 0.000010065
     104
-0.000000002-0.000000002 0.000000015 0.000004823 0.000004823 0.000009990
     105
-0.000000004-0.000000004 0.000000027 0.000004628 0.000004628 0.000009897
     106
-0.000000005-0.000000005 0.000000043 0.000004386 0.000004386 0.000009796
     107
-0.000000007-0.000000007 0.000000063 0.000004104 0.000004104 0.000009700
     108
-0.000000008-0.000000008 0.000000087 0.000003790 0.000003790 0.000009623
     109
-0.000000009-0.000000009 0.000000116 0.000003453 0.000003453 0.000009583
     110
-0.000000009-0.000000009 0.000000149 0.000003100 0.000003100 0.000009595
     111
-0.000000008-0.000000008 0.000000186 0.000002742 0.000002742 0.000009676
     112
-0.000000006-0.000000006 0.000000227 0.000002387 0.000002387 0.000009840
     113
-0.000000003-0.000000003 0.000000272 0.000002044 0.000002044 0.000010103
     114
 0.000000002 0.000000002 0.000000319 0.000001722 0.000001722 0.000010476
     115
 0.000000008 0.000000008 0.000000369 0.000001429 0.000001429 0.000010966
     116
 0.000000016 0.000000016 0.000000421 0.000001170 0.000001170 0.000011580
     117
 0.000000025 0.000000025 0.000000474 0.000000950 0.000000950 0.000012320
     118
 0.000000036 0.000000036 0.000000526 0.000000775 0.000000775 0.000013182
     119
 0.000000047 0.000000047 0.000000578 0.000000646 0.000000646 0.000014161
     120
 0.000000060 0.000000060 0.000000627 0.000000563 0.000000563 0.000015246
     121
 0.000000074 0.000000074 0.000000675 0.000000528 0.000000528 0.000016422
     122
 0.000000087 0.000000087 0.000000720 0.000000537 0.000000537 0.000017672
     123
 0.000000101 0.000000101 0.000000762 0.000000588 0.000000588 0.000018975
     124
 0.000000115 0.000000115 0.000000800 0.000000675 0.000000675 0.000020306
     125
 0.000000128 0.000000128 0.000000835 0.000000794 0.000000794 0.000021641
     126
 0.000000139 0.000000139 0.000000866 0.000000939 0.000000939 0.000022953
     127
 0.000000150 0.000000150 0.000000895 0.000001102 0.000001102 0.000024216
     128
 0.000000159 0.000000159 0.000000921 0.000001276 0.000001276 0.000025404
     129
 0.000000167 0.000000167 0.000000945 0.000001455 0.000001455 0.000026493
     130
 0.000000173 0.000000173 0.000000967 0.000001630 0.000001630 0.000027460
     131
 0.000000176 0.000000176 0.000000988 0.000001797 0.000001797 0.000028289
     132
 0.000000178 0.000000178 0.000001008 0.000001948 0.000001948 0.000028962
     133
 0.000000179 0.000000179 0.000001028 0.000002079 0.000002079 0.000029471
     134
 0.000000177 0.000000177 0.000001048 0.000002185 0.000002185 0.000029808
     135
 0.000000175 0.000000175 0.000001068 0.000002264 0.000002264 0.000029974
     136
 0.000000171 0.000000171 0.000001088 0.000002313 0.000002313 0.000029972
     137
 0.000000166 0.000000166 0.000001109 0.000002333 0.000002333 0.000029812
     138
 0.000000160 0.000000160 0.000001130 0.000002324 0.000002324 0.000029506
     139
 0.000000155 0.000000155 0.000001151 0.000002288 0.000002288 0.000029072
     140
 0.000000149 0.000000149 0.000001173 0.000002227 0.000002227 0.000028532
     141
 0.000000144 0.000000144 0.000001195 0.000002146 0.000002146 0.000027910
     142
 0.000000138 0.000000138 0.000001217 0.000002050 0.000002050 0.000027233
     143
 0.000000134 0.000000134 0.000001238 0.000001942 0.000001942 0.000026527
     144
 0.000000130 0.000000130 0.000001258 0.000001830 0.000001830 0.000025822
     145
 0.000000127 0.000000127 0.000001277 0.000001719 0.000001719 0.000025145
     146
 0.000000124 0.000000124 0.000001294 0.000001613 0.000001613 0.000024521
     147
 0.000000122 0.000000122 0.000001308 0.000001519 0.000001519 0.000023976
     148
 0.000000121 0.000000121 0.000001320 0.000001441 0.000001441 0.000023528
     149
 0.000000120 0.000000120 0.000001329 0.000001382 0.000001382 0.000023196
     150
 0.000000119 0.000000119 0.000001334 0.000001346 0.000001346 0.000022992
     151
 0.000000119 0.000000119 0.000001336 0.000001333 0.000001333 0.000022923
     152
 0.000000120 0.000000118 0.000001321 0.000001319 0.000001321 0.000022673
     153
 0.000000123 0.000000114 0.000001275 0.000001277 0.000001288 0.000021939
     154
 0.000000128 0.000000107 0.000001204 0.000001212 0.000001236 0.000020763
     155
 0.000000134 0.000000100 0.000001111 0.000001130 0.000001173 0.000019214
     156
 0.000000143 0.000000093 0.000001003 0.000001041 0.000001107 0.000017378
     157
 0.000000153 0.000000087 0.000000889 0.000000953 0.000001048 0.000015355
     158
 0.000000165 0.000000084 0.000000776 0.000000876 0.000001003 0.000013247
     159
 0.000000180 0.000000084 0.000000672 0.000000819 0.000000979 0.000011156
     160
 0.000000196 0.000000089 0.000000582 0.000000787 0.000000983 0.000009170
     161
 0.000000213 0.000000098 0.000000514 0.000000787 0.000001015 0.000007362
     162
 0.000000232 0.000000109 0.000000468 0.000000818 0.000001076 0.000005785
     163
 0.000000250 0.000000123 0.000000447 0.000000880 0.000001161 0.000004469
     164
 0.000000267 0.000000138 0.000000448 0.000000967 0.000001264 0.000003422
     165
 0.000000282 0.000000151 0.000000469 0.000001073 0.000001376 0.000002633
     166
 0.000000292 0.000000504 0.000000160 0.000001189 0.000001488 0.000002073
     167
 0.000000296 0.000000548 0.000000164 0.000001306 0.000001589 0.000001704
     168
 0.000000292 0.000000595 0.000000161 0.000001413 0.000001670 0.000001479
     169
 0.000000638 0.000000277 0.000000150 0.000001501 0.000001722 0.000001353
     170
 0.000000672 0.000000252 0.000000132 0.000001564 0.000001741 0.000001282
     171
 0.000000694 0.000000216 0.000000105 0.000001596 0.000001722 0.000001232
     172
 0.000000700 0.000000170 0.000000073 0.000001596 0.000001668 0.000001174
     173
 0.000000691 0.000000117 0.000000036 0.000001565 0.000001582 0.000001094
     174
 0.000000667 0.000000059-0.000000001 0.000001507 0.000001471 0.000000985
     175
 0.000000632 0.000000002-0.000000037 0.000001429 0.000001345 0.000000851
     176
 0.000000588-0.000000050-0.000000068 0.000001339 0.000001215 0.000000699
     177
 0.000000540-0.000000092-0.000000091 0.000001247 0.000001092 0.000000544
     178
 0.000000494-0.000000102-0.000000118 0.000001164 0.000000990 0.000000400
     179
 0.000000454-0.000000100-0.000000127 0.000001100 0.000000917 0.000000281
     180
 0.000000424-0.000000083-0.000000115 0.000001061 0.000000881 0.000000198
     181
 0.000000409-0.000000052-0.000000081 0.000001053 0.000000888 0.000000157
     182
 0.000000409-0.000000007-0.000000027 0.000001081 0.000000938 0.000000161
     183
 0.000000426 0.000000051 0.000000044 0.000001143 0.000001031 0.000000207
     184
 0.000000459 0.000000117 0.000000129 0.000001237 0.000001160 0.000000286
     185
 0.000000507 0.000000190 0.000000223 0.000001359 0.000001317 0.000000389
     186
 0.000000567 0.000000266 0.000000319 0.000001499 0.000001494 0.000000504
     187
 0.000000635 0.000000339 0.000000412 0.000001650 0.000001678 0.000000619
     188
 0.000000707 0.000000408 0.000000497 0.000001803 0.000001859 0.000000724
     189
 0.000000781 0.000000467 0.000000569 0.000001948 0.000002027 0.000000808
     190
 0.000000853 0.000000516 0.000000625 0.000002078 0.000002172 0.000000867
     191
 0.000000919 0.000000552 0.000000663 0.000002186 0.000002288 0.000000898
     192
 0.000000977 0.000000574 0.000000681 0.000002270 0.000002372 0.000000900
     193
 0.000001026 0.000000584 0.000000682 0.000002328 0.000002424 0.000000877
     194
 0.000001067 0.000000583 0.000000668 0.000002361 0.000002445 0.000000833
     195
 0.000001098 0.000000573 0.000000642 0.000002372 0.000002442 0.000000776
     196
 0.000001120 0.000000556 0.000000609 0.000002366 0.000002419 0.000000712
     197
 0.000001136 0.000000537 0.000000574 0.000002349 0.000002386 0.000000648
     198
 0.000001146 0.000000519 0.000000540 0.000002328 0.000002350 0.000000591
     199
 0.000001152 0.000000503 0.000000513 0.000002308 0.000002318 0.000000546
     200
 0.000001155 0.000000493 0.000000495 0.000002294 0.000002296 0.000000517
     201
 0.000001156 0.000000489 0.000000489 0.000002288 0.000002288 0.000000507
     202
 0.000001149 0.000000491 0.000000493 0.000002282 0.000002285 0.000000514
     203
 0.000001130 0.000000495 0.000000506 0.000002265 0.000002276 0.000000534
     204
 0.000001101 0.000000502 0.000000527 0.000002237 0.000002266 0.000000566
     205
 0.000001066 0.000000511 0.000000557 0.000002204 0.000002259 0.000000609
     206
 0.000001029 0.000000520 0.000000594 0.000002166 0.000002261 0.000000661
     207
 0.000000997 0.000000529 0.000000638 0.000002129 0.000002276 0.000000723
     208
 0.000000975 0.000000539 0.000000686 0.000002096 0.000002305 0.000000791
     209
 0.000000967 0.000000549 0.000000736 0.000002068 0.000002345 0.000000866
     210
 0.000000975 0.000000561 0.000000784 0.000002047 0.000002389 0.000000947
     211
 0.000001000 0.000000577 0.000000829 0.000002033 0.000002430 0.000001032
     212
 0.000001038 0.000000598 0.000000866 0.000002028 0.000002456 0.000001123
     213
 0.000001086 0.000000624 0.000000892 0.000002030 0.000002459 0.000001217
     214
 0.000001136 0.000000654 0.000000904 0.000002040 0.000002431 0.000001315
     215
 0.000001184 0.000000687 0.000000900 0.000002055 0.000002369 0.000001414
     216
 0.000001221 0.000000720 0.000000879 0.000002077 0.000002274 0.000001513
     217
 0.000001241 0.000000749 0.000000840 0.000002103 0.000002154 0.000001610
     218
 0.000001241 0.000000771 0.000000786 0.000002132 0.000002018 0.000001698
     219
 0.000001219 0.000000781 0.000000719 0.000002160 0.000001879 0.000001774
     220
 0.000001174 0.000000777 0.000000644 0.000002183 0.000001752 0.000001830
     221
 0.000001108 0.000000757 0.000000563 0.000002196 0.000001649 0.000001858
     222
 0.000001025 0.000000721 0.000000483 0.000002192 0.000001582 0.000001853
     223
 0.000000930 0.000000671 0.000000404 0.000002165 0.000001555 0.000001809
     224
 0.000000828 0.000000610 0.000000331 0.000002108 0.000001569 0.000001724
     225
 0.000000724 0.000000543 0.000000265 0.000002020 0.000001620 0.000001601
     226
 0.000000624 0.000000474 0.000000205 0.000001899 0.000001699 0.000001447
     227
 0.000000530 0.000000408 0.000000154 0.000001749 0.000001795 0.000001275
     228
 0.000000445 0.000000349 0.000000112 0.000001577 0.000001894 0.000001099
     229
 0.000000372 0.000000299 0.000000080 0.000001392 0.000001988 0.000000936
     230
 0.000000309 0.000000259 0.000000060 0.000001205 0.000002070 0.000000801
     231
 0.000000257 0.000000230 0.000000051 0.000001028 0.000002136 0.000000707
     232
 0.000000215 0.000000209 0.000000053 0.000000871 0.000002190 0.000000663
     233
 0.000000181 0.000000194 0.000000064 0.000000743 0.000002237 0.000000675
     234
 0.000000156 0.000000182 0.000000081 0.000000650 0.000002285 0.000000744
     235
 0.000000139 0.000000172 0.000000099 0.000000596 0.000002343 0.000000873
     236
 0.000000128 0.000000159 0.000000116 0.000000585 0.000002416 0.000001062
     237
 0.000000122 0.000000144 0.000000128 0.000000619 0.000002510 0.000001315
     238
 0.000000121 0.000000125 0.000000134 0.000000704 0.000002627 0.000001638
     239
 0.000000122 0.000000104 0.000000133 0.000000845 0.000002769 0.000002042
     240
 0.000000124 0.000000080 0.000000126 0.000001047 0.000002935 0.000002537
     241
 0.000000125 0.000000057 0.000000114 0.000003125 0.000001317 0.000003134
     242
 0.000000123 0.000000035 0.000000099 0.000003338 0.000001656 0.000003836
     243
 0.000000117 0.000000017 0.000000082 0.000003570 0.000002062 0.000004636
     244
 0.000000106 0.000000004 0.000000064 0.000003819 0.000002524 0.000005518
     245
 0.000000090-0.000000005 0.000000048 0.000004076 0.000003024 0.000006447
     246
 0.000000071-0.000000009 0.000000033 0.000004332 0.000003535 0.000007380
     247
 0.000000051-0.000000009 0.000000021 0.000004572 0.000004025 0.000008259
     248
 0.000000031-0.000000007 0.000000012 0.000004781 0.000004456 0.000009025
     249
 0.000000015-0.000000004 0.000000005 0.000004944 0.000004794 0.000009621
     250
 0.000000004-0.000000001 0.000000001 0.000005048 0.000005010 0.000010000
     251
 0.000000000 0.000000000-0.000000000 0.000005084 0.000005084 0.000010130
     252
-0.000000000 0.000000003-0.000000000 0.000005027 0.000005056 0.000010057
     253
-0.000000000 0.000000012-0.000000000 0.000004860 0.000004975 0.000009841
     254
-0.000000001 0.000000026 0.000000001 0.000004592 0.000004845 0.000009496
     255
-0.000000000 0.000000045 0.000000004 0.000004239 0.000004672 0.000009043
     256
 0.000000001 0.000000068 0.000000012 0.000003821 0.000004467 0.000008506
     257
 0.000000003 0.000000095 0.000000024 0.000003362 0.000004236 0.000007915
     258
 0.000000006 0.000000124 0.000000043 0.000002884 0.000003991 0.000007297
     259
 0.000000012 0.000000153 0.000000067 0.000002410 0.000003737 0.000006678
     260
 0.000000019 0.000000181 0.000000095 0.000001962 0.000003482 0.000006078
     261
 0.000000027 0.000000207 0.000000125 0.000001555 0.000003228 0.000005512
     262
 0.000000037 0.000000228 0.000000155 0.000001201 0.000002977 0.000004987
     263
 0.000000047 0.000000246 0.000000182 0.000000908 0.000002729 0.000004504
     264
 0.000000058 0.000000258 0.000000202 0.000000676 0.000002484 0.000004058
     265
 0.000000068 0.000000266 0.000000215 0.000000504 0.000002239 0.000003641
     266
 0.000000077 0.000000270 0.000000221 0.000000386 0.000001996 0.000003244
     267
 0.000000085 0.000000272 0.000000221 0.000000312 0.000001755 0.000002857
     268
 0.000000092 0.000000274 0.000000219 0.000000272 0.000001520 0.000002473
     269
 0.000000098 0.000000279 0.000000221 0.000000257 0.000001296 0.000002090
     270
 0.000000103 0.000000290 0.000000234 0.000000258 0.000001091 0.000001711
     271
 0.000000107 0.000000310 0.000000266 0.000000265 0.000000914 0.000001343
     272
 0.000000112 0.000000339 0.000000326 0.000000275 0.000000773 0.000001000
     273
 0.000000118 0.000000381 0.000000420 0.000000284 0.000000676 0.000000696
     274
 0.000000125 0.000000433 0.000000555 0.000000290 0.000000631 0.000000448
     275
 0.000000135 0.000000496 0.000000731 0.000000293 0.000000640 0.000000271
     276
 0.000000146 0.000000565 0.000000950 0.000000295 0.000000703 0.000000180
     277
 0.000000160 0.000000638 0.000001205 0.000000298 0.000000818 0.000000180
     278
 0.000000176 0.000000710 0.000001488 0.000000303 0.000000975 0.000000273
     279
 0.000000192 0.000000776 0.000001787 0.000000312 0.000001164 0.000000453
     280
 0.000000209 0.000000832 0.000002086 0.000000324 0.000001372 0.000000707
     281
 0.000000226 0.000000875 0.000002368 0.000000340 0.000001583 0.000001017
     282
 0.000000242 0.000000905 0.000002615 0.000000357 0.000001784 0.000001359
     283
 0.000000255 0.000000921 0.000002812 0.000000374 0.000001960 0.000001708
     284
 0.000000265 0.000000927 0.000002944 0.000000388 0.000002099 0.000002038
     285
 0.000000272 0.000000924 0.000003003 0.000000396 0.000002193 0.000002326
     286
 0.000000274 0.000000915 0.000002986 0.000000397 0.000002236 0.000002554
     287
 0.000000272 0.000000900 0.000002899 0.000000390 0.000002226 0.000002707
     288
 0.000000266 0.000000879 0.000002753 0.000000374 0.000002166 0.000002780
     289
 0.000000256 0.000000849 0.000002563 0.000000349 0.000002061 0.000002773
     290
 0.000000242 0.000000810 0.000002347 0.000000317 0.000001919 0.000002690
     291
 0.000000225 0.000000760 0.000002124 0.000000280 0.000001748 0.000002544
     292
 0.000000206 0.000000701 0.000001909 0.000000241 0.000001560 0.000002348
     293
 0.000000185 0.000000633 0.000001714 0.000000201 0.000001364 0.000002118
     294
 0.000000164 0.000000561 0.000001547 0.000000162 0.000001172 0.000001871
     295
 0.000000144 0.000000489 0.000001412 0.000000127 0.000000992 0.000001623
     296
 0.000000124 0.000000419 0.000001308 0.000000096 0.000000830 0.000001388
     297
 0.000000107 0.000000357 0.000001234 0.000000071 0.000000693 0.000001180
     298
 0.000000093 0.000000305 0.000001184 0.000000052 0.000000583 0.000001007
     299
 0.000000083 0.000000266 0.000001153 0.000000038 0.000000504 0.000000879
     300
 0.000000076 0.000000242 0.000001136 0.000000030 0.000000456 0.000000800
     301
 0.000000074 0.000000233 0.000001131 0.000000027 0.000000439 0.000000773
     302
 0.000000078 0.000000238 0.000001144 0.000000030 0.000000445 0.000000784
     303
 0.000000088 0.000000249 0.000001182 0.000000039 0.000000461 0.000000818
     304
 0.000000112 0.000000260 0.000001239 0.000000054 0.000000483 0.000000869
     305
 0.000000166 0.000000249 0.000001308 0.000000072 0.000000506 0.000000935
     306
 0.000000250 0.000000214 0.000001380 0.000000094 0.000000525 0.000001007
     307
 0.000000318 0.000000197 0.000001445 0.000000118 0.000000533 0.000001080
     308
 0.000000369 0.000000196 0.000001493 0.000000143 0.000000528 0.000001146
     309
 0.000000411 0.000000199 0.000001517 0.000000170 0.000000509 0.000001200
     310
 0.000000448 0.000000203 0.000001511 0.000000197 0.000000480 0.000001238
     311
 0.000000482 0.000000206 0.000001475 0.000000227 0.000000446 0.000001256
     312
 0.000000513 0.000000209 0.000001411 0.000000259 0.000000417 0.000001254
     313
 0.000000544 0.000000215 0.000001324 0.000000295 0.000000404 0.000001234
     314
 0.000000575 0.000000226 0.000001222 0.000000338 0.000000419 0.000001199
     315
 0.000000608 0.000000245 0.000001115 0.000000390 0.000000471 0.000001154
     316
 0.000000645 0.000000274 0.000001017 0.000000451 0.000000567 0.000001104
     317
 0.000000688 0.000000316 0.000000937 0.000000525 0.000000709 0.000001056
     318
 0.000000735 0.000000373 0.000000885 0.000000610 0.000000895 0.000001014
     319
 0.000000788 0.000000443 0.000000868 0.000000708 0.000001116 0.000000983
     320
 0.000000845 0.000000526 0.000000892 0.000000817 0.000001359 0.000000966
     321
 0.000000905 0.000000621 0.000000956 0.000000934 0.000001606 0.000000966
     322
 0.000000965 0.000000722 0.000001058 0.000001057 0.000001839 0.000000981
     323
 0.000001023 0.000000825 0.000001191 0.000001182 0.000002038 0.000001011
     324
 0.000001077 0.000000927 0.000001347 0.000001305 0.000002186 0.000001051
     325
 0.000001125 0.000001020 0.000001516 0.000001420 0.000002273 0.000001099
     326
 0.000001163 0.000001101 0.000001686 0.000001525 0.000002291 0.000001149
     327
 0.000001192 0.000001165 0.000001848 0.000001615 0.000002242 0.000001196
     328
 0.000001211 0.000001210 0.000001992 0.000001687 0.000002133 0.000001236
     329
 0.000001219 0.000001233 0.000002111 0.000001741 0.000001977 0.000001265
     330
 0.000001218 0.000001235 0.000002200 0.000001775 0.000001794 0.000001280
     331
 0.000001209 0.000001218 0.000002257 0.000001792 0.000001605 0.000001278
     332
 0.000001193 0.000001185 0.000002282 0.000001793 0.000001430 0.000001260
     333
 0.000001172 0.000001140 0.000002277 0.000001781 0.000001289 0.000001226
     334
 0.000001147 0.000002248 0.000001089 0.000001762 0.000001197 0.000001176
     335
 0.000001118 0.000002199 0.000001038 0.000001739 0.000001163 0.000001112
     336
 0.000001087 0.000002136 0.000000992 0.000001718 0.000001191 0.000001037
     337
 0.000001054 0.000002065 0.000000957 0.000001703 0.000001275 0.000000954
     338
 0.000001018 0.000001992 0.000000936 0.000001699 0.000001405 0.000000864
     339
 0.000000981 0.000001919 0.000000933 0.000001708 0.000001569 0.000000771
     340
 0.000000941 0.000001852 0.000000949 0.000001731 0.000001747 0.000000676
     341
 0.000000901 0.000001792 0.000000984 0.000001770 0.000001924 0.000000582
     342
 0.000000859 0.000001740 0.000001036 0.000001824 0.000002084 0.000000491
     343
 0.000000817 0.000001696 0.000001103 0.000001889 0.000002215 0.000000404
     344
 0.000000776 0.000001661 0.000001179 0.000001962 0.000002311 0.000000323
     345
 0.000000737 0.000001634 0.000001261 0.000002040 0.000002369 0.000000249
     346
 0.000000702 0.000001613 0.000001342 0.000002117 0.000002395 0.000000184
     347
 0.000000671 0.000001598 0.000001418 0.000002188 0.000002394 0.000000129
     348
 0.000000645 0.000001587 0.000001483 0.000002249 0.000002379 0.000000085
     349
 0.000000626 0.000001580 0.000001532 0.000002295 0.000002358 0.000000052
     350
 0.000000614 0.000001576 0.000001564 0.000002325 0.000002341 0.000000033
     351
 0.000000610 0.000001574 0.000001574 0.000002335 0.000002335 0.000000026
     352
 0.000000616 0.000001565 0.000001576 0.000002330 0.000002346 0.000000036
     353
 0.000000633 0.000001540 0.000001581 0.000002315 0.000002377 0.000000064
     354
 0.000000659 0.000001500 0.000001588 0.000002291 0.000002419 0.000000112
     355
 0.000000694 0.000001452 0.000001592 0.000002258 0.000002460 0.000000176
     356
 0.000000735 0.000001400 0.000001590 0.000002219 0.000002484 0.000000257
     357
 0.000000779 0.000001348 0.000001579 0.000002173 0.000002478 0.000000350
     358
 0.000000824 0.000001300 0.000001554 0.000002120 0.000002429 0.000000452
     359
 0.000000867 0.000001255 0.000001512 0.000002062 0.000002331 0.000000559
     360
 0.000000906 0.000001212 0.000001450 0.000002000 0.000002184 0.000000667
     361
 0.000000940 0.000001167 0.000001368 0.000001935 0.000001997 0.000000773
     362
 0.000000966 0.000001116 0.000001265 0.000001871 0.000001784 0.000000875
     363
 0.000000985 0.000001054 0.000001146 0.000001811 0.000001567 0.000000972
     364
 0.000000998 0.000000980 0.000001014 0.000001762 0.000001369 0.000001065
     365
 0.000001003 0.000000892 0.000000874 0.000001728 0.000001213 0.000001155
     366
 0.000001003 0.000000795 0.000000733 0.000001715 0.000001118 0.000001245
     367
 0.000000998 0.000000693 0.000000599 0.000001724 0.000001094 0.000001335
     368
 0.000000989 0.000000593 0.000000476 0.000001754 0.000001140 0.000001425
     369
 0.000000974 0.000000505 0.000000370 0.000001803 0.000001247 0.000001511
     370
 0.000000953 0.000000435 0.000000284 0.000001862 0.000001395 0.000001590
     371
 0.000000924 0.000000389 0.000000220 0.000001921 0.000001557 0.000001654
     372
 0.000000885 0.000000370 0.000000180 0.000001970 0.000001703 0.000001695
     373
 0.000000835 0.000000375 0.000000162 0.000001999 0.000001805 0.000001701
     374
 0.000000774 0.000000399 0.000000163 0.000001999 0.000001844 0.000001665
     375
 0.000000703 0.000000436 0.000000179 0.000001966 0.000001809 0.000001581
     376
 0.000000624 0.000000474 0.000000205 0.000001899 0.000001699 0.000001447
     377
 0.000000541 0.000000505 0.000000235 0.000001802 0.000001528 0.000001268
     378
 0.000000460 0.000000519 0.000000262 0.000001684 0.000001317 0.000001056
     379
 0.000000384 0.000000511 0.000000281 0.000001552 0.000001091 0.000000832
     380
 0.000000318 0.000000479 0.000000287 0.000001419 0.000000877 0.000000626
     381
 0.000000265 0.000000422 0.000000280 0.000001293 0.000000701 0.000000471
     382
 0.000000225 0.000000347 0.000000260 0.000001184 0.000000578 0.000000409
     383
 0.000000197 0.000000259 0.000000231 0.000001096 0.000000517 0.000000483
     384
 0.000000178 0.000000169 0.000000202 0.000001032 0.000000518 0.000000735
     385
 0.000000163 0.000000083 0.000000180 0.000000993 0.000000573 0.000001201
     386
 0.000000149 0.000000009 0.000000173 0.000000976 0.000000668 0.000001910
     387
 0.000000135-0.000000046 0.000000183 0.000000978 0.000000785 0.000002879
     388
 0.000000125-0.000000081 0.000000211 0.000000996 0.000000911 0.000004108
     389
 0.000000120-0.000000096 0.000000254 0.000001024 0.000001029 0.000005584
     390
 0.000000121-0.000000092 0.000000313 0.000001059 0.000001132 0.000007274
     391
 0.000000127-0.000000073 0.000000387 0.000001099 0.000001213 0.000009133
     392
 0.000000134-0.000000045 0.000000478 0.000001139 0.000001272 0.000011099
     393
 0.000000140-0.000000013 0.000000585 0.000001178 0.000001310 0.000013106
     394
 0.000000144 0.000000020 0.000000705 0.000001214 0.000001331 0.000015080
     395
 0.000000143 0.000000049 0.000000833 0.000001246 0.000001340 0.000016952
     396
 0.000000139 0.000000074 0.000000962 0.000001274 0.000001342 0.000018654
     397
 0.000000134 0.000000092 0.000001083 0.000001296 0.000001340 0.000020127
     398
 0.000000128 0.000000105 0.000001188 0.000001313 0.000001337 0.000021322
     399
 0.000000124 0.000000114 0.000001268 0.000001324 0.000001335 0.000022203
     400
 0.000000120 0.000000118 0.000001319 0.000001331 0.000001334 0.000022742
     401
 0.000000119 0.000000119 0.000001336 0.000001333 0.000001333 0.000022923
Norm of the difference between old and new effective charges:    0.00000000000000000000
Norm of the difference between old and new force-constants:   0.00001737489517392581
 Broadening   0.0100
       1
 0.000001151 0.000000810 0.000000810 0.000002454 0.000002454 0.000001216
       2
 0.000001147 0.000000811 0.000000809 0.000002450 0.000002451 0.000001214
       3
 0.000001135 0.000000813 0.000000806 0.000002437 0.000002443 0.000001209
       4
 0.000001117 0.000000817 0.000000802 0.000002415 0.000002432 0.000001201
       5
 0.000001094 0.000000824 0.000000797 0.000002386 0.000002420 0.000001191
       6
 0.000001069 0.000000834 0.000000793 0.000002349 0.000002410 0.000001182
       7
 0.000001043 0.000000848 0.000000791 0.000002306 0.000002406 0.000001174
       8
 0.000001018 0.000000867 0.000000791 0.000002258 0.000002409 0.000001169
       9
 0.000000998 0.000000891 0.000000795 0.000002205 0.000002419 0.000001169
      10
 0.000000984 0.000000920 0.000000804 0.000002150 0.000002436 0.000001173
      11
 0.000000976 0.000000954 0.000000817 0.000002093 0.000002456 0.000001181
      12
 0.000000975 0.000000993 0.000000835 0.000002036 0.000002475 0.000001193
      13
 0.000000982 0.000001035 0.000000858 0.000001979 0.000002487 0.000001208
      14
 0.000000994 0.000001081 0.000000884 0.000001925 0.000002488 0.000001223
      15
 0.000001010 0.000001128 0.000000912 0.000001873 0.000002472 0.000001236
      16
 0.000001028 0.000001177 0.000000941 0.000001824 0.000002436 0.000001246
      17
 0.000001046 0.000001225 0.000000969 0.000001779 0.000002379 0.000001250
      18
 0.000001061 0.000001272 0.000000995 0.000001738 0.000002302 0.000001248
      19
 0.000001071 0.000001317 0.000001015 0.000001700 0.000002208 0.000001238
      20
 0.000001076 0.000001359 0.000001029 0.000001664 0.000002105 0.000001220
      21
 0.000001072 0.000001399 0.000001036 0.000001630 0.000002000 0.000001196
      22
 0.000001061 0.000001434 0.000001034 0.000001597 0.000001901 0.000001167
      23
 0.000001041 0.000001023 0.000001465 0.000001562 0.000001818 0.000001135
      24
 0.000001015 0.000001002 0.000001492 0.000001527 0.000001758 0.000001103
      25
 0.000000982 0.000000973 0.000001514 0.000001488 0.000001728 0.000001074
      26
 0.000000945 0.000000936 0.000001531 0.000001445 0.000001732 0.000001051
      27
 0.000000905 0.000000892 0.000001542 0.000001398 0.000001771 0.000001036
      28
 0.000000863 0.000000843 0.000001547 0.000001346 0.000001845 0.000001031
      29
 0.000000822 0.000000789 0.000001547 0.000001290 0.000001949 0.000001038
      30
 0.000000783 0.000000733 0.000001542 0.000001229 0.000002081 0.000001055
      31
 0.000000747 0.000000676 0.000001534 0.000001164 0.000002233 0.000001083
      32
 0.000000714 0.000000621 0.000001523 0.000001096 0.000002402 0.000001120
      33
 0.000000686 0.000000567 0.000001513 0.000001026 0.000002584 0.000001163
      34
 0.000000661 0.000000518 0.000001506 0.000000955 0.000002776 0.000001209
      35
 0.000000639 0.000000473 0.000001506 0.000000885 0.000002980 0.000001255
      36
 0.000000618 0.000000435 0.000001515 0.000000817 0.000003198 0.000001297
      37
 0.000000597 0.000000406 0.000001538 0.000000752 0.000003434 0.000001331
      38
 0.000000570 0.000000389 0.000001578 0.000000690 0.000003693 0.000001356
      39
 0.000000528 0.000000393 0.000001635 0.000000633 0.000003980 0.000001368
      40
 0.000000465 0.000000424 0.000001713 0.000000581 0.000004298 0.000001367
      41
 0.000000404 0.000000454 0.000001809 0.000000535 0.000004650 0.000001353
      42
 0.000000369 0.000000463 0.000001923 0.000000493 0.000005031 0.000001327
      43
 0.000000352 0.000000455 0.000002050 0.000000457 0.000005436 0.000001290
      44
 0.000000345 0.000000438 0.000002186 0.000000426 0.000005854 0.000001246
      45
 0.000000344 0.000000417 0.000002325 0.000000399 0.000006271 0.000001198
      46
 0.000000346 0.000000395 0.000002459 0.000000377 0.000001148 0.000006668
      47
 0.000000349 0.000000374 0.000002581 0.000000359 0.000001101 0.000007028
      48
 0.000000352 0.000000355 0.000002685 0.000000346 0.000001061 0.000007332
      49
 0.000000355 0.000000341 0.000002764 0.000000336 0.000001030 0.000007562
      50
 0.000000357 0.000000332 0.000002814 0.000000330 0.000001010 0.000007706
      51
 0.000000358 0.000000329 0.000002831 0.000000328 0.000001003 0.000007755
      52
 0.000000357 0.000000329 0.000002831 0.000000332 0.000001014 0.000007767
      53
 0.000000355 0.000000328 0.000002834 0.000000342 0.000001046 0.000007803
      54
 0.000000352 0.000000327 0.000002838 0.000000358 0.000001098 0.000007861
      55
 0.000000347 0.000000326 0.000002842 0.000000380 0.000007939 0.000001167
      56
 0.000000341 0.000000325 0.000002846 0.000000405 0.000008037 0.000001250
      57
 0.000000335 0.000000324 0.000002848 0.000000434 0.000008150 0.000001342
      58
 0.000000327 0.000000322 0.000002848 0.000000464 0.000008277 0.000001441
      59
 0.000000319 0.000000321 0.000002845 0.000000495 0.000008412 0.000001540
      60
 0.000000311 0.000000320 0.000002836 0.000000523 0.000008553 0.000001635
      61
 0.000000302 0.000000319 0.000002821 0.000000548 0.000008694 0.000001721
      62
 0.000000293 0.000000319 0.000002799 0.000000568 0.000008833 0.000001793
      63
 0.000000284 0.000000318 0.000002768 0.000000583 0.000008963 0.000001849
      64
 0.000000276 0.000000318 0.000002728 0.000000590 0.000009082 0.000001883
      65
 0.000000267 0.000000317 0.000002678 0.000000591 0.000009184 0.000001895
      66
 0.000000258 0.000000315 0.000002618 0.000000583 0.000009267 0.000001882
      67
 0.000000250 0.000000313 0.000002548 0.000000568 0.000009326 0.000001844
      68
 0.000000241 0.000000309 0.000002468 0.000000546 0.000009358 0.000001781
      69
 0.000000233 0.000000305 0.000002379 0.000000517 0.000009360 0.000001697
      70
 0.000000225 0.000000299 0.000002282 0.000000484 0.000009331 0.000001592
      71
 0.000000217 0.000000291 0.000002177 0.000000447 0.000009269 0.000001472
      72
 0.000000208 0.000000281 0.000002065 0.000000409 0.000009173 0.000001341
      73
 0.000000200 0.000000269 0.000001950 0.000000372 0.000009043 0.000001205
      74
 0.000000191 0.000000256 0.000001830 0.000000338 0.000008880 0.000001068
      75
 0.000000182 0.000000241 0.000001709 0.000000309 0.000008684 0.000000939
      76
 0.000000173 0.000000224 0.000001588 0.000000288 0.000008458 0.000000822
      77
 0.000000163 0.000000206 0.000001468 0.000000277 0.000008205 0.000000724
      78
 0.000000153 0.000000186 0.000001350 0.000000278 0.000007926 0.000000652
      79
 0.000000143 0.000000167 0.000001235 0.000000293 0.000007627 0.000000610
      80
 0.000000133 0.000000147 0.000001125 0.000000324 0.000007310 0.000000603
      81
 0.000000123 0.000000127 0.000001019 0.000000372 0.000006980 0.000000635
      82
 0.000000112 0.000000107 0.000000919 0.000000437 0.000006641 0.000000708
      83
 0.000000102 0.000000089 0.000000825 0.000000519 0.000006298 0.000000824
      84
 0.000000092 0.000000071 0.000000736 0.000000619 0.000005956 0.000000983
      85
 0.000000082 0.000000055 0.000000653 0.000000735 0.000005618 0.000001183
      86
 0.000000072 0.000000041 0.000000575 0.000000866 0.000005288 0.000001421
      87
 0.000000063 0.000000029 0.000000502 0.000001010 0.000004971 0.000001695
      88
 0.000000055 0.000000019 0.000000435 0.000001165 0.000004668 0.000001998
      89
 0.000000047 0.000000011 0.000000372 0.000001328 0.000004383 0.000002326
      90
 0.000000039 0.000000004 0.000000314 0.000001496 0.000004118 0.000002669
      91
 0.000000032-0.000000000 0.000000261 0.000001665 0.000003875 0.000003022
      92
 0.000000026-0.000000003 0.000000213 0.000001833 0.000003653 0.000003375
      93
 0.000000020-0.000000005 0.000000169 0.000001995 0.000003456 0.000003721
      94
 0.000000016-0.000000005 0.000000130 0.000002148 0.000003282 0.000004050
      95
 0.000000011-0.000000005 0.000000096 0.000002289 0.000003131 0.000004354
      96
 0.000000008-0.000000004 0.000000067 0.000002414 0.000003005 0.000004627
      97
 0.000000005-0.000000003 0.000000043 0.000002521 0.000002902 0.000004860
      98
 0.000000003-0.000000002 0.000000024 0.000002607 0.000002822 0.000005048
      99
 0.000000001-0.000000001 0.000000011 0.000002669 0.000002765 0.000005186
     100
 0.000000000-0.000000000 0.000000003 0.000002707 0.000002732 0.000005270
     101
 0.000000000 0.000000000 0.000000000 0.000002720 0.000002720 0.000005298
     102
-0.000000000-0.000000000 0.000000002 0.000002708 0.000002708 0.000005317
     103
 0.000000000 0.000000000 0.000000007 0.000002671 0.000002671 0.000005372
     104
 0.000000000 0.000000000 0.000000016 0.000002611 0.000002611 0.000005465
     105
 0.000000000 0.000000000 0.000000028 0.000002530 0.000002530 0.000005595
     106
 0.000000000 0.000000000 0.000000043 0.000002428 0.000002428 0.000005764
     107
 0.000000001 0.000000001 0.000000061 0.000002311 0.000002311 0.000005972
     108
 0.000000002 0.000000002 0.000000081 0.000002180 0.000002180 0.000006220
     109
 0.000000003 0.000000003 0.000000103 0.000002039 0.000002039 0.000006509
     110
 0.000000004 0.000000004 0.000000127 0.000001893 0.000001893 0.000006839
     111
 0.000000007 0.000000007 0.000000153 0.000001744 0.000001744 0.000007211
     112
 0.000000009 0.000000009 0.000000179 0.000001598 0.000001598 0.000007626
     113
 0.000000013 0.000000013 0.000000205 0.000001457 0.000001457 0.000008082
     114
 0.000000017 0.000000017 0.000000231 0.000001325 0.000001325 0.000008580
     115
 0.000000022 0.000000022 0.000000257 0.000001206 0.000001206 0.000009118
     116
 0.000000027 0.000000027 0.000000281 0.000001102 0.000001102 0.000009696
     117
 0.000000033 0.000000033 0.000000305 0.000001016 0.000001016 0.000010310
     118
 0.000000040 0.000000040 0.000000327 0.000000949 0.000000949 0.000010958
     119
 0.000000047 0.000000047 0.000000347 0.000000903 0.000000903 0.000011637
     120
 0.000000055 0.000000055 0.000000366 0.000000877 0.000000877 0.000012342
     121
 0.000000063 0.000000063 0.000000383 0.000000872 0.000000872 0.000013070
     122
 0.000000071 0.000000071 0.000000399 0.000000888 0.000000888 0.000013816
     123
 0.000000079 0.000000079 0.000000414 0.000000922 0.000000922 0.000014573
     124
 0.000000087 0.000000087 0.000000427 0.000000972 0.000000972 0.000015337
     125
 0.000000095 0.000000095 0.000000441 0.000001038 0.000001038 0.000016102
     126
 0.000000102 0.000000102 0.000000454 0.000001115 0.000001115 0.000016861
     127
 0.000000109 0.000000109 0.000000468 0.000001202 0.000001202 0.000017609
     128
 0.000000115 0.000000115 0.000000482 0.000001294 0.000001294 0.000018340
     129
 0.000000120 0.000000120 0.000000498 0.000001390 0.000001390 0.000019048
     130
 0.000000124 0.000000124 0.000000516 0.000001485 0.000001485 0.000019729
     131
 0.000000128 0.000000128 0.000000536 0.000001578 0.000001578 0.000020378
     132
 0.000000130 0.000000130 0.000000559 0.000001665 0.000001665 0.000020991
     133
 0.000000132 0.000000132 0.000000584 0.000001744 0.000001744 0.000021565
     134
 0.000000133 0.000000133 0.000000611 0.000001814 0.000001814 0.000022097
     135
 0.000000133 0.000000133 0.000000641 0.000001873 0.000001873 0.000022586
     136
 0.000000133 0.000000133 0.000000673 0.000001919 0.000001919 0.000023032
     137
 0.000000132 0.000000132 0.000000707 0.000001954 0.000001954 0.000023433
     138
 0.000000131 0.000000131 0.000000742 0.000001975 0.000001975 0.000023790
     139
 0.000000129 0.000000129 0.000000778 0.000001985 0.000001985 0.000024106
     140
 0.000000128 0.000000128 0.000000814 0.000001984 0.000001984 0.000024381
     141
 0.000000126 0.000000126 0.000000850 0.000001973 0.000001973 0.000024619
     142
 0.000000125 0.000000125 0.000000885 0.000001955 0.000001955 0.000024821
     143
 0.000000123 0.000000123 0.000000918 0.000001930 0.000001930 0.000024991
     144
 0.000000122 0.000000122 0.000000949 0.000001902 0.000001902 0.000025132
     145
 0.000000121 0.000000121 0.000000977 0.000001872 0.000001872 0.000025246
     146
 0.000000120 0.000000120 0.000001002 0.000001842 0.000001842 0.000025338
     147
 0.000000119 0.000000119 0.000001022 0.000001815 0.000001815 0.000025409
     148
 0.000000119 0.000000119 0.000001039 0.000001792 0.000001792 0.000025461
     149
 0.000000118 0.000000118 0.000001051 0.000001774 0.000001774 0.000025497
     150
 0.000000118 0.000000118 0.000001058 0.000001763 0.000001763 0.000025518
     151
 0.000000118 0.000000118 0.000001061 0.000001759 0.000001759 0.000025525
     152
 0.000000117 0.000000115 0.000001050 0.000001744 0.000001747 0.000025288
     153
 0.000000114 0.000000107 0.000001018 0.000001699 0.000001713 0.000024589
     154
 0.000000110 0.000000093 0.000000967 0.000001629 0.000001659 0.000023463
     155
 0.000000105 0.000000076 0.000000902 0.000001539 0.000001592 0.000021965
     156
 0.000000101 0.000000057 0.000000826 0.000001437 0.000001520 0.000020166
     157
 0.000000098 0.000000037 0.000000745 0.000001333 0.000001449 0.000018150
     158
 0.000000098 0.000000020 0.000000664 0.000001235 0.000001388 0.000016004
     159
 0.000000102 0.000000006 0.000000589 0.000001150 0.000001342 0.000013818
     160
 0.000000111-0.000000002 0.000000524 0.000001086 0.000001317 0.000011672
     161
 0.000000126-0.000000004 0.000000473 0.000001047 0.000001314 0.000009638
     162
 0.000000147 0.000000003 0.000000438 0.000001036 0.000001334 0.000007774
     163
 0.000000174 0.000000018 0.000000419 0.000001052 0.000001374 0.000006121
     164
 0.000000206 0.000000041 0.000000416 0.000001092 0.000001429 0.000004702
     165
 0.000000242 0.000000072 0.000000428 0.000001152 0.000001493 0.000003526
     166
 0.000000279 0.000000450 0.000000109 0.000001226 0.000001560 0.000002586
     167
 0.000000314 0.000000479 0.000000149 0.000001308 0.000001622 0.000001864
     168
 0.000000344 0.000000511 0.000000191 0.000001390 0.000001673 0.000001333
     169
 0.000000543 0.000000367 0.000000231 0.000001466 0.000001706 0.000000961
     170
 0.000000571 0.000000380 0.000000268 0.000001533 0.000001720 0.000000715
     171
 0.000000594 0.000000380 0.000000298 0.000001585 0.000001713 0.000000564
     172
 0.000000609 0.000000369 0.000000322 0.000001623 0.000001685 0.000000479
     173
 0.000000617 0.000000345 0.000000337 0.000001647 0.000001642 0.000000437
     174
 0.000000618 0.000000312 0.000000344 0.000001660 0.000001589 0.000000421
     175
 0.000000615 0.000000273 0.000000343 0.000001666 0.000001532 0.000000418
     176
 0.000000608 0.000000232 0.000000337 0.000001670 0.000001479 0.000000422
     177
 0.000000601 0.000000194 0.000000328 0.000001677 0.000001438 0.000000431
     178
 0.000000596 0.000000320 0.000000163 0.000001693 0.000001416 0.000000447
     179
 0.000000596 0.000000314 0.000000145 0.000001722 0.000001418 0.000000470
     180
 0.000000602 0.000000314 0.000000143 0.000001766 0.000001447 0.000000504
     181
 0.000000616 0.000000322 0.000000159 0.000001829 0.000001505 0.000000551
     182
 0.000000639 0.000000341 0.000000195 0.000001909 0.000001590 0.000000613
     183
 0.000000670 0.000000371 0.000000248 0.000002003 0.000001699 0.000000687
     184
 0.000000708 0.000000411 0.000000318 0.000002109 0.000001826 0.000000773
     185
 0.000000753 0.000000461 0.000000400 0.000002221 0.000001964 0.000000865
     186
 0.000000801 0.000000518 0.000000490 0.000002333 0.000002106 0.000000960
     187
 0.000000851 0.000000579 0.000000581 0.000002440 0.000002244 0.000001052
     188
 0.000000902 0.000000641 0.000000670 0.000002535 0.000002370 0.000001137
     189
 0.000000950 0.000000699 0.000000751 0.000002614 0.000002478 0.000001209
     190
 0.000000994 0.000000751 0.000000819 0.000002672 0.000002564 0.000001267
     191
 0.000001033 0.000000795 0.000000871 0.000002709 0.000002625 0.000001307
     192
 0.000001066 0.000000828 0.000000907 0.000002724 0.000002660 0.000001331
     193
 0.000001093 0.000000849 0.000000925 0.000002717 0.000002671 0.000001340
     194
 0.000001113 0.000000860 0.000000928 0.000002693 0.000002661 0.000001335
     195
 0.000001128 0.000000861 0.000000918 0.000002656 0.000002634 0.000001320
     196
 0.000001138 0.000000855 0.000000898 0.000002611 0.000002597 0.000001298
     197
 0.000001145 0.000000844 0.000000874 0.000002564 0.000002556 0.000001274
     198
 0.000001148 0.000000832 0.000000850 0.000002520 0.000002516 0.000001251
     199
 0.000001150 0.000000820 0.000000829 0.000002485 0.000002483 0.000001233
     200
 0.000001151 0.000000813 0.000000815 0.000002462 0.000002462 0.000001220
     201
 0.000001151 0.000000810 0.000000810 0.000002454 0.000002454 0.000001216
     202
 0.000001147 0.000000811 0.000000813 0.000002455 0.000002454 0.000001216
     203
 0.000001135 0.000000812 0.000000821 0.000002456 0.000002455 0.000001217
     204
 0.000001117 0.000000814 0.000000834 0.000002456 0.000002457 0.000001219
     205
 0.000001095 0.000000816 0.000000850 0.000002455 0.000002463 0.000001222
     206
 0.000001072 0.000000816 0.000000869 0.000002452 0.000002474 0.000001227
     207
 0.000001051 0.000000813 0.000000887 0.000002444 0.000002489 0.000001234
     208
 0.000001033 0.000000807 0.000000902 0.000002430 0.000002507 0.000001244
     209
 0.000001022 0.000000798 0.000000914 0.000002408 0.000002524 0.000001257
     210
 0.000001018 0.000000787 0.000000920 0.000002378 0.000002534 0.000001274
     211
 0.000001022 0.000000775 0.000000918 0.000002339 0.000002530 0.000001295
     212
 0.000001032 0.000000763 0.000000908 0.000002293 0.000002506 0.000001321
     213
 0.000001046 0.000000752 0.000000888 0.000002240 0.000002457 0.000001351
     214
 0.000001060 0.000000743 0.000000858 0.000002184 0.000002378 0.000001387
     215
 0.000001072 0.000000737 0.000000818 0.000002128 0.000002271 0.000001428
     216
 0.000001078 0.000000733 0.000000769 0.000002075 0.000002137 0.000001474
     217
 0.000001076 0.000000730 0.000000712 0.000002028 0.000001985 0.000001523
     218
 0.000001063 0.000000728 0.000000650 0.000001987 0.000001822 0.000001573
     219
 0.000001040 0.000000724 0.000000586 0.000001953 0.000001661 0.000001620
     220
 0.000001005 0.000000716 0.000000522 0.000001923 0.000001512 0.000001659
     221
 0.000000960 0.000000705 0.000000461 0.000001893 0.000001388 0.000001681
     222
 0.000000906 0.000000688 0.000000405 0.000001858 0.000001297 0.000001680
     223
 0.000000845 0.000000665 0.000000356 0.000001814 0.000001246 0.000001650
     224
 0.000000778 0.000000637 0.000000315 0.000001755 0.000001239 0.000001587
     225
 0.000000708 0.000000603 0.000000281 0.000001678 0.000001275 0.000001492
     226
 0.000000638 0.000000564 0.000000252 0.000001583 0.000001350 0.000001367
     227
 0.000000569 0.000000521 0.000000227 0.000001471 0.000001457 0.000001224
     228
 0.000000503 0.000000475 0.000000204 0.000001346 0.000001587 0.000001074
     229
 0.000000442 0.000000427 0.000000185 0.000001214 0.000001731 0.000000934
     230
 0.000000386 0.000000378 0.000000167 0.000001084 0.000001881 0.000000818
     231
 0.000000335 0.000000329 0.000000153 0.000000962 0.000002030 0.000000742
     232
 0.000000290 0.000000281 0.000000143 0.000000856 0.000002173 0.000000718
     233
 0.000000252 0.000000235 0.000000137 0.000000772 0.000002306 0.000000752
     234
 0.000000219 0.000000192 0.000000136 0.000000713 0.000002426 0.000000848
     235
 0.000000192 0.000000154 0.000000138 0.000000683 0.000002532 0.000001003
     236
 0.000000171 0.000000121 0.000000143 0.000000683 0.000002623 0.000001212
     237
 0.000000154 0.000000094 0.000000150 0.000000712 0.000002697 0.000001466
     238
 0.000000140 0.000000072 0.000000157 0.000000770 0.000002755 0.000001755
     239
 0.000000129 0.000000057 0.000000162 0.000000857 0.000002796 0.000002070
     240
 0.000000120 0.000000046 0.000000164 0.000000972 0.000002820 0.000002403
     241
 0.000000111 0.000000039 0.000000162 0.000002829 0.000001113 0.000002748
     242
 0.000000101 0.000000034 0.000000154 0.000002826 0.000001280 0.000003100
     243
 0.000000090 0.000000031 0.000000141 0.000002814 0.000001469 0.000003452
     244
 0.000000077 0.000000027 0.000000124 0.000002796 0.000001675 0.000003800
     245
 0.000000063 0.000000023 0.000000102 0.000002777 0.000001889 0.000004136
     246
 0.000000048 0.000000019 0.000000078 0.000002759 0.000002102 0.000004451
     247
 0.000000033 0.000000013 0.000000054 0.000002744 0.000002301 0.000004732
     248
 0.000000020 0.000000008 0.000000032 0.000002733 0.000002473 0.000004969
     249
 0.000000009 0.000000004 0.000000015 0.000002726 0.000002607 0.000005148
     250
 0.000000002 0.000000001 0.000000004 0.000002722 0.000002691 0.000005260
     251
 0.000000000 0.000000000 0.000000000 0.000002720 0.000002720 0.000005298
     252
 0.000000000 0.000000002 0.000000002 0.000002695 0.000002719 0.000005288
     253
 0.000000001 0.000000008 0.000000009 0.000002621 0.000002716 0.000005259
     254
 0.000000003 0.000000018 0.000000019 0.000002503 0.000002711 0.000005211
     255
 0.000000006 0.000000032 0.000000034 0.000002346 0.000002705 0.000005146
     256
 0.000000009 0.000000048 0.000000051 0.000002160 0.000002698 0.000005065
     257
 0.000000014 0.000000066 0.000000071 0.000001955 0.000002691 0.000004971
     258
 0.000000021 0.000000086 0.000000094 0.000001739 0.000002684 0.000004863
     259
 0.000000028 0.000000107 0.000000118 0.000001524 0.000002676 0.000004741
     260
 0.000000038 0.000000127 0.000000142 0.000001318 0.000002667 0.000004606
     261
 0.000000048 0.000000147 0.000000168 0.000001128 0.000002655 0.000004454
     262
 0.000000059 0.000000166 0.000000193 0.000000960 0.000002639 0.000004285
     263
 0.000000070 0.000000183 0.000000218 0.000000816 0.000002617 0.000004094
     264
 0.000000082 0.000000198 0.000000245 0.000000698 0.000002588 0.000003881
     265
 0.000000093 0.000000213 0.000000272 0.000000605 0.000002550 0.000003643
     266
 0.000000104 0.000000227 0.000000303 0.000000535 0.000002503 0.000003381
     267
 0.000000114 0.000000241 0.000000337 0.000000485 0.000002445 0.000003098
     268
 0.000000122 0.000000257 0.000000378 0.000000450 0.000002379 0.000002797
     269
 0.000000129 0.000000275 0.000000428 0.000000426 0.000002306 0.000002487
     270
 0.000000135 0.000000297 0.000000488 0.000000411 0.000002228 0.000002175
     271
 0.000000140 0.000000323 0.000000561 0.000000399 0.000002149 0.000001873
     272
 0.000000145 0.000000355 0.000000649 0.000000390 0.000002072 0.000001592
     273
 0.000000149 0.000000391 0.000000753 0.000000381 0.000002001 0.000001344
     274
 0.000000153 0.000000433 0.000000874 0.000000373 0.000001940 0.000001142
     275
 0.000000157 0.000000478 0.000001011 0.000000364 0.000001890 0.000000992
     276
 0.000000162 0.000000526 0.000001163 0.000000356 0.000001856 0.000000903
     277
 0.000000168 0.000000574 0.000001327 0.000000349 0.000001836 0.000000876
     278
 0.000000175 0.000000622 0.000001498 0.000000344 0.000001831 0.000000912
     279
 0.000000182 0.000000667 0.000001672 0.000000341 0.000001840 0.000001005
     280
 0.000000190 0.000000707 0.000001842 0.000000339 0.000001860 0.000001147
     281
 0.000000199 0.000000743 0.000002001 0.000000340 0.000001887 0.000001326
     282
 0.000000208 0.000000773 0.000002142 0.000000341 0.000001918 0.000001527
     283
 0.000000216 0.000000798 0.000002259 0.000000342 0.000001947 0.000001737
     284
 0.000000224 0.000000819 0.000002345 0.000000343 0.000001971 0.000001939
     285
 0.000000231 0.000000835 0.000002397 0.000000341 0.000001984 0.000002120
     286
 0.000000236 0.000000848 0.000002413 0.000000336 0.000001985 0.000002267
     287
 0.000000239 0.000000855 0.000002394 0.000000328 0.000001968 0.000002371
     288
 0.000000241 0.000000856 0.000002344 0.000000316 0.000001934 0.000002428
     289
 0.000000241 0.000000847 0.000002268 0.000000300 0.000001880 0.000002434
     290
 0.000000239 0.000000829 0.000002174 0.000000282 0.000001809 0.000002392
     291
 0.000000235 0.000000800 0.000002068 0.000000261 0.000001721 0.000002307
     292
 0.000000230 0.000000761 0.000001957 0.000000239 0.000001621 0.000002186
     293
 0.000000224 0.000000713 0.000001846 0.000000217 0.000001511 0.000002038
     294
 0.000000216 0.000000660 0.000001739 0.000000195 0.000001398 0.000001874
     295
 0.000000209 0.000000605 0.000001641 0.000000176 0.000001286 0.000001704
     296
 0.000000202 0.000000550 0.000001554 0.000000158 0.000001180 0.000001539
     297
 0.000000195 0.000000500 0.000001480 0.000000144 0.000001086 0.000001389
     298
 0.000000190 0.000000458 0.000001422 0.000000132 0.000001007 0.000001262
     299
 0.000000185 0.000000426 0.000001379 0.000000124 0.000000949 0.000001167
     300
 0.000000183 0.000000406 0.000001353 0.000000119 0.000000913 0.000001107
     301
 0.000000182 0.000000399 0.000001345 0.000000118 0.000000900 0.000001087
     302
 0.000000184 0.000000402 0.000001350 0.000000120 0.000000899 0.000001095
     303
 0.000000192 0.000000409 0.000001364 0.000000126 0.000000896 0.000001119
     304
 0.000000213 0.000000413 0.000001386 0.000000137 0.000000889 0.000001155
     305
 0.000000271 0.000000388 0.000001411 0.000000151 0.000000877 0.000001203
     306
 0.000000364 0.000000334 0.000001435 0.000000170 0.000000860 0.000001256
     307
 0.000000436 0.000000304 0.000001454 0.000000193 0.000000837 0.000001310
     308
 0.000000487 0.000000299 0.000001463 0.000000220 0.000000807 0.000001362
     309
 0.000000528 0.000000305 0.000001460 0.000000252 0.000000774 0.000001406
     310
 0.000000565 0.000000315 0.000001441 0.000000288 0.000000741 0.000001439
     311
 0.000000598 0.000000328 0.000001407 0.000000328 0.000000711 0.000001459
     312
 0.000000629 0.000000342 0.000001358 0.000000374 0.000000690 0.000001463
     313
 0.000000657 0.000000359 0.000001299 0.000000424 0.000000685 0.000001452
     314
 0.000000683 0.000000378 0.000001234 0.000000481 0.000000699 0.000001427
     315
 0.000000708 0.000000401 0.000001168 0.000000543 0.000000738 0.000001389
     316
 0.000000731 0.000000428 0.000001107 0.000000611 0.000000802 0.000001343
     317
 0.000000754 0.000000460 0.000001058 0.000000685 0.000000892 0.000001291
     318
 0.000000777 0.000000498 0.000001027 0.000000765 0.000001003 0.000001237
     319
 0.000000800 0.000000542 0.000001017 0.000000849 0.000001131 0.000001186
     320
 0.000000823 0.000000591 0.000001031 0.000000937 0.000001266 0.000001139
     321
 0.000000845 0.000000645 0.000001070 0.000001027 0.000001400 0.000001100
     322
 0.000000867 0.000000703 0.000001132 0.000001119 0.000001521 0.000001071
     323
 0.000000889 0.000000763 0.000001214 0.000001208 0.000001621 0.000001052
     324
 0.000000909 0.000000823 0.000001312 0.000001294 0.000001692 0.000001044
     325
 0.000000928 0.000000882 0.000001420 0.000001374 0.000001729 0.000001044
     326
 0.000000945 0.000000936 0.000001531 0.000001445 0.000001732 0.000001051
     327
 0.000000960 0.000000984 0.000001638 0.000001506 0.000001702 0.000001063
     328
 0.000000973 0.000001024 0.000001735 0.000001556 0.000001645 0.000001077
     329
 0.000000984 0.000001055 0.000001818 0.000001592 0.000001570 0.000001089
     330
 0.000000993 0.000001076 0.000001882 0.000001616 0.000001488 0.000001097
     331
 0.000001002 0.000001087 0.000001925 0.000001628 0.000001410 0.000001098
     332
 0.000001009 0.000001089 0.000001945 0.000001629 0.000001348 0.000001091
     333
 0.000001016 0.000001083 0.000001944 0.000001622 0.000001310 0.000001074
     334
 0.000001022 0.000001922 0.000001071 0.000001610 0.000001303 0.000001045
     335
 0.000001028 0.000001884 0.000001056 0.000001595 0.000001330 0.000001005
     336
 0.000001033 0.000001831 0.000001039 0.000001582 0.000001391 0.000000954
     337
 0.000001037 0.000001769 0.000001024 0.000001574 0.000001480 0.000000894
     338
 0.000001039 0.000001701 0.000001013 0.000001574 0.000001590 0.000000825
     339
 0.000001040 0.000001631 0.000001007 0.000001585 0.000001713 0.000000750
     340
 0.000001040 0.000001563 0.000001008 0.000001608 0.000001838 0.000000669
     341
 0.000001038 0.000001498 0.000001016 0.000001644 0.000001954 0.000000587
     342
 0.000001035 0.000001440 0.000001031 0.000001693 0.000002054 0.000000504
     343
 0.000001031 0.000001388 0.000001052 0.000001751 0.000002132 0.000000423
     344
 0.000001026 0.000001345 0.000001078 0.000001817 0.000002184 0.000000346
     345
 0.000001021 0.000001309 0.000001107 0.000001888 0.000002212 0.000000275
     346
 0.000001016 0.000001281 0.000001137 0.000001957 0.000002219 0.000000212
     347
 0.000001012 0.000001260 0.000001166 0.000002022 0.000002210 0.000000159
     348
 0.000001008 0.000001244 0.000001190 0.000002077 0.000002193 0.000000116
     349
 0.000001006 0.000001234 0.000001210 0.000002120 0.000002175 0.000000084
     350
 0.000001004 0.000001228 0.000001222 0.000002147 0.000002161 0.000000065
     351
 0.000001003 0.000001226 0.000001226 0.000002156 0.000002156 0.000000058
     352
 0.000001003 0.000001224 0.000001229 0.000002149 0.000002166 0.000000067
     353
 0.000001002 0.000001216 0.000001237 0.000002127 0.000002194 0.000000092
     354
 0.000001000 0.000001206 0.000001249 0.000002094 0.000002233 0.000000134
     355
 0.000000998 0.000001194 0.000001264 0.000002051 0.000002275 0.000000193
     356
 0.000000996 0.000001183 0.000001277 0.000002002 0.000002308 0.000000268
     357
 0.000000995 0.000001173 0.000001286 0.000001950 0.000002321 0.000000357
     358
 0.000000994 0.000001166 0.000001288 0.000001898 0.000002306 0.000000458
     359
 0.000000994 0.000001159 0.000001277 0.000001848 0.000002255 0.000000568
     360
 0.000000993 0.000001151 0.000001252 0.000001801 0.000002169 0.000000682
     361
 0.000000992 0.000001137 0.000001210 0.000001759 0.000002050 0.000000799
     362
 0.000000989 0.000001115 0.000001149 0.000001724 0.000001907 0.000000915
     363
 0.000000986 0.000001082 0.000001070 0.000001696 0.000001753 0.000001029
     364
 0.000000981 0.000001035 0.000000976 0.000001676 0.000001602 0.000001140
     365
 0.000000975 0.000000977 0.000000870 0.000001665 0.000001470 0.000001249
     366
 0.000000969 0.000000910 0.000000758 0.000001664 0.000001369 0.000001356
     367
 0.000000963 0.000000838 0.000000646 0.000001672 0.000001307 0.000001459
     368
 0.000000955 0.000000766 0.000000540 0.000001688 0.000001288 0.000001555
     369
 0.000000946 0.000000700 0.000000445 0.000001708 0.000001307 0.000001641
     370
 0.000000931 0.000000645 0.000000367 0.000001729 0.000001353 0.000001709
     371
 0.000000910 0.000000604 0.000000306 0.000001744 0.000001411 0.000001753
     372
 0.000000880 0.000000578 0.000000265 0.000001749 0.000001464 0.000001763
     373
 0.000000837 0.000000566 0.000000242 0.000001737 0.000001495 0.000001733
     374
 0.000000782 0.000000563 0.000000235 0.000001706 0.000001490 0.000001657
     375
 0.000000715 0.000000564 0.000000240 0.000001654 0.000001442 0.000001534
     376
 0.000000638 0.000000564 0.000000252 0.000001583 0.000001350 0.000001367
     377
 0.000000554 0.000000557 0.000000266 0.000001496 0.000001222 0.000001168
     378
 0.000000469 0.000000538 0.000000278 0.000001401 0.000001070 0.000000950
     379
 0.000000388 0.000000505 0.000000284 0.000001304 0.000000912 0.000000736
     380
 0.000000316 0.000000457 0.000000280 0.000001213 0.000000767 0.000000553
     381
 0.000000257 0.000000396 0.000000267 0.000001136 0.000000651 0.000000432
     382
 0.000000213 0.000000327 0.000000244 0.000001075 0.000000577 0.000000405
     383
 0.000000184 0.000000253 0.000000215 0.000001036 0.000000551 0.000000509
     384
 0.000000166 0.000000179 0.000000186 0.000001016 0.000000573 0.000000778
     385
 0.000000156 0.000000111 0.000000163 0.000001014 0.000000637 0.000001245
     386
 0.000000146 0.000000052 0.000000153 0.000001027 0.000000731 0.000001937
     387
 0.000000134 0.000000006 0.000000159 0.000001051 0.000000845 0.000002876
     388
 0.000000121-0.000000027 0.000000183 0.000001081 0.000000965 0.000004074
     389
 0.000000108-0.000000046 0.000000220 0.000001117 0.000001081 0.000005533
     390
 0.000000099-0.000000053 0.000000270 0.000001158 0.000001187 0.000007238
     391
 0.000000094-0.000000048 0.000000331 0.000001203 0.000001279 0.000009163
     392
 0.000000092-0.000000036 0.000000403 0.000001254 0.000001358 0.000011261
     393
 0.000000092-0.000000017 0.000000486 0.000001312 0.000001426 0.000013474
     394
 0.000000095 0.000000006 0.000000578 0.000001378 0.000001486 0.000015726
     395
 0.000000098 0.000000030 0.000000676 0.000001449 0.000001542 0.000017935
     396
 0.000000102 0.000000053 0.000000774 0.000001523 0.000001596 0.000020010
     397
 0.000000107 0.000000075 0.000000867 0.000001596 0.000001646 0.000021861
     398
 0.000000111 0.000000093 0.000000947 0.000001662 0.000001691 0.000023403
     399
 0.000000115 0.000000107 0.000001008 0.000001714 0.000001727 0.000024562
     400
 0.000000117 0.000000115 0.000001047 0.000001748 0.000001751 0.000025281
     401
 0.000000118 0.000000118 0.000001061 0.000001759 0.000001759 0.000025525
Norm of the difference between old and new effective charges:    0.00000000000000000000
Norm of the difference between old and new force-constants:   0.00001759566244469445
 Broadening   0.0150
       1
 0.000001035 0.000000869 0.000000869 0.000002364 0.000002364 0.000001370
       2
 0.000001033 0.000000870 0.000000869 0.000002361 0.000002365 0.000001368
       3
 0.000001028 0.000000874 0.000000868 0.000002352 0.000002368 0.000001363
       4
 0.000001021 0.000000881 0.000000866 0.000002337 0.000002372 0.000001355
       5
 0.000001011 0.000000892 0.000000865 0.000002317 0.000002379 0.000001346
       6
 0.000001000 0.000000905 0.000000863 0.000002291 0.000002388 0.000001334
       7
 0.000000989 0.000000923 0.000000862 0.000002259 0.000002398 0.000001323
       8
 0.000000978 0.000000945 0.000000862 0.000002223 0.000002408 0.000001311
       9
 0.000000969 0.000000971 0.000000864 0.000002182 0.000002417 0.000001301
      10
 0.000000961 0.000001002 0.000000867 0.000002138 0.000002422 0.000001292
      11
 0.000000957 0.000001036 0.000000872 0.000002092 0.000002420 0.000001285
      12
 0.000000955 0.000001074 0.000000879 0.000002044 0.000002408 0.000001280
      13
 0.000000956 0.000001116 0.000000888 0.000001995 0.000002382 0.000001276
      14
 0.000000960 0.000001159 0.000000898 0.000001946 0.000002341 0.000001273
      15
 0.000000967 0.000001203 0.000000910 0.000001899 0.000002283 0.000001269
      16
 0.000000974 0.000001247 0.000000922 0.000001853 0.000002206 0.000001265
      17
 0.000000981 0.000001289 0.000000933 0.000001809 0.000002114 0.000001259
      18
 0.000000988 0.000001329 0.000000943 0.000001768 0.000002009 0.000001250
      19
 0.000000992 0.000001366 0.000000951 0.000001728 0.000001895 0.000001237
      20
 0.000000993 0.000001398 0.000000954 0.000001689 0.000001780 0.000001221
      21
 0.000000990 0.000001425 0.000000953 0.000001651 0.000001669 0.000001202
      22
 0.000000982 0.000001446 0.000000946 0.000001613 0.000001571 0.000001181
      23
 0.000000970 0.000000933 0.000001462 0.000001573 0.000001492 0.000001158
      24
 0.000000952 0.000000913 0.000001471 0.000001530 0.000001439 0.000001137
      25
 0.000000930 0.000000887 0.000001475 0.000001485 0.000001417 0.000001118
      26
 0.000000904 0.000000855 0.000001473 0.000001435 0.000001428 0.000001105
      27
 0.000000876 0.000000817 0.000001467 0.000001382 0.000001476 0.000001098
      28
 0.000000845 0.000000774 0.000001458 0.000001325 0.000001557 0.000001100
      29
 0.000000815 0.000000728 0.000001446 0.000001264 0.000001672 0.000001112
      30
 0.000000784 0.000000681 0.000001433 0.000001201 0.000001815 0.000001133
      31
 0.000000756 0.000000632 0.000001421 0.000001135 0.000001983 0.000001165
      32
 0.000000729 0.000000585 0.000001411 0.000001069 0.000002171 0.000001205
      33
 0.000000705 0.000000540 0.000001405 0.000001002 0.000002376 0.000001251
      34
 0.000000683 0.000000499 0.000001403 0.000000936 0.000002593 0.000001300
      35
 0.000000662 0.000000463 0.000001408 0.000000872 0.000002823 0.000001349
      36
 0.000000641 0.000000434 0.000001421 0.000000810 0.000003062 0.000001395
      37
 0.000000618 0.000000413 0.000001442 0.000000751 0.000003312 0.000001433
      38
 0.000000585 0.000000406 0.000001472 0.000000696 0.000003574 0.000001461
      39
 0.000000534 0.000000421 0.000001511 0.000000644 0.000003847 0.000001476
      40
 0.000000461 0.000000460 0.000001559 0.000000595 0.000004133 0.000001475
      41
 0.000000395 0.000000493 0.000001613 0.000000549 0.000004430 0.000001459
      42
 0.000000358 0.000000497 0.000001674 0.000000506 0.000004736 0.000001427
      43
 0.000000339 0.000000483 0.000001739 0.000000467 0.000005046 0.000001383
      44
 0.000000329 0.000000460 0.000001806 0.000000430 0.000005354 0.000001329
      45
 0.000000324 0.000000433 0.000001871 0.000000397 0.000005651 0.000001268
      46
 0.000000321 0.000000405 0.000001933 0.000000368 0.000001206 0.000005928
      47
 0.000000319 0.000000378 0.000001988 0.000000343 0.000001147 0.000006173
      48
 0.000000319 0.000000355 0.000002034 0.000000322 0.000001095 0.000006376
      49
 0.000000318 0.000000337 0.000002069 0.000000307 0.000001055 0.000006529
      50
 0.000000318 0.000000325 0.000002091 0.000000298 0.000001030 0.000006624
      51
 0.000000318 0.000000321 0.000002098 0.000000295 0.000001021 0.000006656
      52
 0.000000317 0.000000321 0.000002098 0.000000298 0.000001029 0.000006668
      53
 0.000000316 0.000000320 0.000002100 0.000000305 0.000001054 0.000006704
      54
 0.000000314 0.000000319 0.000002101 0.000000317 0.000001093 0.000006762
      55
 0.000000310 0.000000318 0.000002103 0.000000332 0.000006842 0.000001147
      56
 0.000000306 0.000000316 0.000002105 0.000000351 0.000006941 0.000001211
      57
 0.000000301 0.000000314 0.000002105 0.000000372 0.000007058 0.000001283
      58
 0.000000296 0.000000312 0.000002104 0.000000395 0.000007189 0.000001360
      59
 0.000000290 0.000000310 0.000002099 0.000000418 0.000007331 0.000001439
      60
 0.000000284 0.000000308 0.000002091 0.000000440 0.000007481 0.000001516
      61
 0.000000277 0.000000306 0.000002079 0.000000460 0.000007636 0.000001587
      62
 0.000000271 0.000000303 0.000002061 0.000000478 0.000007790 0.000001650
      63
 0.000000264 0.000000301 0.000002037 0.000000493 0.000007940 0.000001700
      64
 0.000000257 0.000000298 0.000002007 0.000000503 0.000008083 0.000001737
      65
 0.000000250 0.000000296 0.000001969 0.000000508 0.000008214 0.000001756
      66
 0.000000243 0.000000292 0.000001925 0.000000509 0.000008329 0.000001759
      67
 0.000000237 0.000000288 0.000001873 0.000000505 0.000008425 0.000001743
      68
 0.000000230 0.000000283 0.000001815 0.000000497 0.000008498 0.000001709
      69
 0.000000223 0.000000277 0.000001749 0.000000484 0.000008546 0.000001658
      70
 0.000000215 0.000000270 0.000001678 0.000000469 0.000008565 0.000001592
      71
 0.000000208 0.000000262 0.000001602 0.000000450 0.000008554 0.000001513
      72
 0.000000201 0.000000252 0.000001521 0.000000431 0.000008511 0.000001424
      73
 0.000000193 0.000000241 0.000001436 0.000000412 0.000008435 0.000001329
      74
 0.000000185 0.000000228 0.000001350 0.000000394 0.000008326 0.000001231
      75
 0.000000177 0.000000214 0.000001262 0.000000380 0.000008183 0.000001136
      76
 0.000000168 0.000000199 0.000001173 0.000000370 0.000008007 0.000001046
      77
 0.000000159 0.000000184 0.000001086 0.000000365 0.000007801 0.000000966
      78
 0.000000150 0.000000167 0.000001000 0.000000368 0.000007565 0.000000901
      79
 0.000000141 0.000000150 0.000000916 0.000000379 0.000007302 0.000000854
      80
 0.000000131 0.000000133 0.000000836 0.000000400 0.000007015 0.000000829
      81
 0.000000122 0.000000116 0.000000759 0.000000430 0.000006708 0.000000827
      82
 0.000000112 0.000000100 0.000000686 0.000000471 0.000006384 0.000000852
      83
 0.000000102 0.000000084 0.000000617 0.000000522 0.000006047 0.000000903
      84
 0.000000093 0.000000069 0.000000551 0.000000584 0.000005702 0.000000982
      85
 0.000000083 0.000000056 0.000000490 0.000000655 0.000005352 0.000001088
      86
 0.000000074 0.000000044 0.000000433 0.000000736 0.000005002 0.000001219
      87
 0.000000065 0.000000033 0.000000379 0.000000825 0.000004656 0.000001373
      88
 0.000000057 0.000000024 0.000000329 0.000000920 0.000004318 0.000001547
      89
 0.000000049 0.000000016 0.000000283 0.000001020 0.000003991 0.000001738
      90
 0.000000041 0.000000010 0.000000239 0.000001123 0.000003679 0.000001940
      91
 0.000000034 0.000000006 0.000000199 0.000001227 0.000003385 0.000002150
      92
 0.000000028 0.000000003 0.000000163 0.000001329 0.000003112 0.000002361
      93
 0.000000022 0.000000000 0.000000130 0.000001429 0.000002861 0.000002569
      94
 0.000000017-0.000000001 0.000000100 0.000001522 0.000002636 0.000002768
      95
 0.000000012-0.000000001 0.000000074 0.000001609 0.000002437 0.000002953
      96
 0.000000009-0.000000002 0.000000052 0.000001685 0.000002267 0.000003119
      97
 0.000000006-0.000000001 0.000000033 0.000001751 0.000002126 0.000003261
      98
 0.000000003-0.000000001 0.000000019 0.000001803 0.000002016 0.000003376
      99
 0.000000001-0.000000000 0.000000008 0.000001841 0.000001936 0.000003460
     100
 0.000000000-0.000000000 0.000000002 0.000001865 0.000001889 0.000003512
     101
 0.000000000 0.000000000 0.000000000 0.000001873 0.000001873 0.000003529
     102
 0.000000000 0.000000000 0.000000002 0.000001866 0.000001866 0.000003554
     103
 0.000000000 0.000000000 0.000000006 0.000001845 0.000001845 0.000003629
     104
 0.000000001 0.000000001 0.000000014 0.000001811 0.000001811 0.000003754
     105
 0.000000002 0.000000002 0.000000024 0.000001766 0.000001766 0.000003926
     106
 0.000000003 0.000000003 0.000000037 0.000001709 0.000001709 0.000004144
     107
 0.000000004 0.000000004 0.000000053 0.000001643 0.000001643 0.000004405
     108
 0.000000005 0.000000005 0.000000070 0.000001569 0.000001569 0.000004708
     109
 0.000000007 0.000000007 0.000000088 0.000001489 0.000001489 0.000005048
     110
 0.000000009 0.000000009 0.000000108 0.000001407 0.000001407 0.000005424
     111
 0.000000011 0.000000011 0.000000128 0.000001322 0.000001322 0.000005830
     112
 0.000000014 0.000000014 0.000000149 0.000001239 0.000001239 0.000006264
     113
 0.000000017 0.000000017 0.000000169 0.000001158 0.000001158 0.000006722
     114
 0.000000020 0.000000020 0.000000189 0.000001083 0.000001083 0.000007200
     115
 0.000000024 0.000000024 0.000000207 0.000001014 0.000001014 0.000007695
     116
 0.000000028 0.000000028 0.000000225 0.000000954 0.000000954 0.000008203
     117
 0.000000032 0.000000032 0.000000242 0.000000903 0.000000903 0.000008721
     118
 0.000000037 0.000000037 0.000000257 0.000000864 0.000000864 0.000009246
     119
 0.000000042 0.000000042 0.000000271 0.000000836 0.000000836 0.000009776
     120
 0.000000047 0.000000047 0.000000283 0.000000820 0.000000820 0.000010308
     121
 0.000000052 0.000000052 0.000000294 0.000000816 0.000000816 0.000010840
     122
 0.000000057 0.000000057 0.000000305 0.000000824 0.000000824 0.000011370
     123
 0.000000061 0.000000061 0.000000314 0.000000843 0.000000843 0.000011897
     124
 0.000000066 0.000000066 0.000000323 0.000000873 0.000000873 0.000012419
     125
 0.000000071 0.000000071 0.000000333 0.000000912 0.000000912 0.000012936
     126
 0.000000076 0.000000076 0.000000342 0.000000960 0.000000960 0.000013446
     127
 0.000000080 0.000000080 0.000000353 0.000001014 0.000001014 0.000013949
     128
 0.000000084 0.000000084 0.000000365 0.000001072 0.000001072 0.000014445
     129
 0.000000088 0.000000088 0.000000378 0.000001135 0.000001135 0.000014933
     130
 0.000000091 0.000000091 0.000000393 0.000001199 0.000001199 0.000015413
     131
 0.000000094 0.000000094 0.000000410 0.000001263 0.000001263 0.000015883
     132
 0.000000096 0.000000096 0.000000429 0.000001326 0.000001326 0.000016344
     133
 0.000000099 0.000000099 0.000000451 0.000001386 0.000001386 0.000016795
     134
 0.000000101 0.000000101 0.000000475 0.000001442 0.000001442 0.000017235
     135
 0.000000103 0.000000103 0.000000501 0.000001494 0.000001494 0.000017664
     136
 0.000000104 0.000000104 0.000000528 0.000001540 0.000001540 0.000018079
     137
 0.000000106 0.000000106 0.000000557 0.000001580 0.000001580 0.000018481
     138
 0.000000107 0.000000107 0.000000587 0.000001614 0.000001614 0.000018867
     139
 0.000000108 0.000000108 0.000000618 0.000001641 0.000001641 0.000019235
     140
 0.000000109 0.000000109 0.000000648 0.000001663 0.000001663 0.000019585
     141
 0.000000110 0.000000110 0.000000678 0.000001679 0.000001679 0.000019915
     142
 0.000000111 0.000000111 0.000000707 0.000001689 0.000001689 0.000020221
     143
 0.000000112 0.000000112 0.000000734 0.000001696 0.000001696 0.000020502
     144
[...]
     162
 0.000000212 0.000000129 0.000000247 0.000001126 0.000001057 0.000004198
     163
 0.000000223 0.000000133 0.000000239 0.000001147 0.000001062 0.000003557
     164
 0.000000234 0.000000139 0.000000235 0.000001171 0.000001068 0.000002950
     165
 0.000000245 0.000000147 0.000000236 0.000001200 0.000001075 0.000002387
     166
 0.000000257 0.000000241 0.000000160 0.000001232 0.000001083 0.000001881
     167
 0.000000270 0.000000250 0.000000177 0.000001268 0.000001093 0.000001437
     168
 0.000000283 0.000000264 0.000000200 0.000001308 0.000001104 0.000001063
     169
 0.000000281 0.000000297 0.000000228 0.000001352 0.000001117 0.000000758
     170
 0.000000302 0.000000312 0.000000262 0.000001400 0.000001131 0.000000525
     171
 0.000000326 0.000000329 0.000000302 0.000001452 0.000001147 0.000000358
     172
 0.000000351 0.000000347 0.000000348 0.000001509 0.000001165 0.000000254
     173
 0.000000378 0.000000366 0.000000400 0.000001569 0.000001185 0.000000206
     174
 0.000000407 0.000000387 0.000000457 0.000001632 0.000001209 0.000000206
     175
 0.000000435 0.000000409 0.000000518 0.000001700 0.000001236 0.000000245
     176
 0.000000464 0.000000433 0.000000583 0.000001769 0.000001266 0.000000314
     177
 0.000000493 0.000000458 0.000000649 0.000001841 0.000001302 0.000000405
     178
 0.000000521 0.000000717 0.000000485 0.000001915 0.000001342 0.000000510
     179
 0.000000549 0.000000784 0.000000513 0.000001989 0.000001387 0.000000621
     180
 0.000000575 0.000000850 0.000000542 0.000002063 0.000001437 0.000000733
     181
 0.000000601 0.000000912 0.000000574 0.000002136 0.000001492 0.000000841
     182
 0.000000626 0.000000971 0.000000606 0.000002206 0.000001552 0.000000942
     183
 0.000000651 0.000001024 0.000000641 0.000002273 0.000001617 0.000001033
     184
 0.000000674 0.000001070 0.000000676 0.000002335 0.000001686 0.000001112
     185
 0.000000698 0.000001110 0.000000713 0.000002391 0.000001757 0.000001181
     186
 0.000000721 0.000001143 0.000000750 0.000002441 0.000001830 0.000001239
     187
 0.000000744 0.000001169 0.000000788 0.000002483 0.000001904 0.000001286
     188
 0.000000768 0.000001188 0.000000826 0.000002518 0.000001978 0.000001324
     189
 0.000000792 0.000001200 0.000000864 0.000002544 0.000002050 0.000001354
     190
 0.000000815 0.000001206 0.000000901 0.000002563 0.000002119 0.000001378
     191
 0.000000839 0.000001206 0.000000936 0.000002574 0.000002185 0.000001396
     192
 0.000000863 0.000001202 0.000000970 0.000002578 0.000002246 0.000001410
     193
 0.000000886 0.000001195 0.000001001 0.000002577 0.000002301 0.000001420
     194
 0.000000908 0.000001185 0.000001030 0.000002571 0.000002351 0.000001427
     195
 0.000000928 0.000001174 0.000001055 0.000002562 0.000002395 0.000001432
     196
 0.000000947 0.000001162 0.000001077 0.000002552 0.000002432 0.000001436
     197
 0.000000963 0.000001152 0.000001096 0.000002540 0.000002462 0.000001438
     198
 0.000000976 0.000001142 0.000001110 0.000002530 0.000002485 0.000001439
     199
 0.000000986 0.000001135 0.000001121 0.000002522 0.000002502 0.000001440
     200
 0.000000992 0.000001131 0.000001127 0.000002517 0.000002512 0.000001440
     201
 0.000000994 0.000001129 0.000001129 0.000002515 0.000002515 0.000001441
     202
 0.000000992 0.000001130 0.000001127 0.000002514 0.000002509 0.000001439
     203
 0.000000985 0.000001134 0.000001120 0.000002509 0.000002489 0.000001435
     204
 0.000000974 0.000001139 0.000001108 0.000002502 0.000002458 0.000001428
     205
 0.000000959 0.000001146 0.000001092 0.000002490 0.000002417 0.000001418
     206
 0.000000942 0.000001154 0.000001073 0.000002474 0.000002367 0.000001406
     207
 0.000000923 0.000001162 0.000001050 0.000002452 0.000002310 0.000001392
     208
 0.000000903 0.000001169 0.000001025 0.000002426 0.000002248 0.000001375
     209
 0.000000883 0.000001175 0.000000999 0.000002393 0.000002181 0.000001358
     210
 0.000000864 0.000001179 0.000000971 0.000002355 0.000002111 0.000001340
     211
 0.000000847 0.000001180 0.000000941 0.000002311 0.000002037 0.000001322
     212
 0.000000831 0.000001177 0.000000911 0.000002262 0.000001959 0.000001306
     213
 0.000000817 0.000001171 0.000000879 0.000002208 0.000001877 0.000001291
     214
 0.000000805 0.000001160 0.000000845 0.000002150 0.000001791 0.000001279
     215
 0.000000793 0.000001144 0.000000810 0.000002087 0.000001700 0.000001270
     216
 0.000000782 0.000001122 0.000000773 0.000002020 0.000001605 0.000001264
     217
 0.000000769 0.000001094 0.000000734 0.000001950 0.000001508 0.000001261
     218
 0.000000755 0.000001060 0.000000694 0.000001876 0.000001412 0.000001262
     219
 0.000000739 0.000001020 0.000000653 0.000001798 0.000001320 0.000001267
     220
 0.000000720 0.000000975 0.000000610 0.000001718 0.000001239 0.000001274
     221
 0.000000697 0.000000924 0.000000568 0.000001635 0.000001173 0.000001283
     222
 0.000000671 0.000000869 0.000000526 0.000001551 0.000001129 0.000001293
     223
 0.000000642 0.000000811 0.000000484 0.000001466 0.000001113 0.000001301
     224
 0.000000611 0.000000751 0.000000442 0.000001383 0.000001128 0.000001306
     225
 0.000000576 0.000000690 0.000000402 0.000001303 0.000001177 0.000001309
     226
 0.000000541 0.000000629 0.000000363 0.000001228 0.000001260 0.000001309
     227
 0.000000504 0.000000570 0.000000325 0.000001158 0.000001374 0.000001306
     228
 0.000000467 0.000000514 0.000000289 0.000001096 0.000001514 0.000001303
     229
 0.000000431 0.000000460 0.000000256 0.000001041 0.000001673 0.000001302
     230
 0.000000396 0.000000411 0.000000227 0.000000996 0.000001843 0.000001304
     231
 0.000000363 0.000000365 0.000000203 0.000000960 0.000002017 0.000001311
     232
 0.000000331 0.000000324 0.000000184 0.000000933 0.000002185 0.000001324
     233
 0.000000302 0.000000287 0.000000170 0.000000915 0.000002339 0.000001344
     234
 0.000000275 0.000000254 0.000000162 0.000000904 0.000002473 0.000001369
     235
 0.000000250 0.000000225 0.000000158 0.000000900 0.000002580 0.000001398
     236
 0.000000227 0.000000199 0.000000158 0.000000901 0.000002654 0.000001429
     237
 0.000000206 0.000000177 0.000000159 0.000000906 0.000002692 0.000001458
     238
 0.000000185 0.000000157 0.000000160 0.000000913 0.000002690 0.000001481
     239
 0.000000165 0.000000139 0.000000160 0.000000921 0.000002647 0.000001497
     240
 0.000000145 0.000000123 0.000000157 0.000000928 0.000002564 0.000001501
     241
 0.000000126 0.000000107 0.000000151 0.000002442 0.000000934 0.000001493
     242
 0.000000107 0.000000092 0.000000140 0.000002286 0.000000938 0.000001472
     243
 0.000000089 0.000000078 0.000000125 0.000002102 0.000000938 0.000001440
     244
 0.000000071 0.000000063 0.000000107 0.000001899 0.000000936 0.000001399
     245
 0.000000054 0.000000049 0.000000087 0.000001689 0.000000932 0.000001351
     246
 0.000000039 0.000000036 0.000000065 0.000001482 0.000000926 0.000001302
     247
 0.000000025 0.000000024 0.000000045 0.000001292 0.000000919 0.000001254
     248
 0.000000015 0.000000014 0.000000027 0.000001130 0.000000912 0.000001212
     249
 0.000000007 0.000000006 0.000000012 0.000001006 0.000000907 0.000001179
     250
 0.000000002 0.000000002 0.000000003 0.000000928 0.000000903 0.000001158
     251
-0.000000000-0.000000000-0.000000000 0.000000902 0.000000902 0.000001151
     252
 0.000000001 0.000000001 0.000000002 0.000000897 0.000000918 0.000001161
     253
 0.000000003 0.000000005 0.000000008 0.000000882 0.000000967 0.000001192
     254
 0.000000007 0.000000012 0.000000017 0.000000859 0.000001047 0.000001242
     255
 0.000000012 0.000000021 0.000000030 0.000000827 0.000001154 0.000001310
     256
 0.000000019 0.000000032 0.000000046 0.000000790 0.000001286 0.000001391
     257
 0.000000026 0.000000045 0.000000064 0.000000749 0.000001437 0.000001483
     258
 0.000000035 0.000000060 0.000000083 0.000000705 0.000001602 0.000001581
     259
 0.000000044 0.000000076 0.000000103 0.000000661 0.000001776 0.000001682
     260
 0.000000053 0.000000092 0.000000124 0.000000619 0.000001954 0.000001781
     261
 0.000000063 0.000000109 0.000000145 0.000000579 0.000002131 0.000001873
     262
 0.000000074 0.000000126 0.000000166 0.000000543 0.000002301 0.000001955
     263
 0.000000084 0.000000142 0.000000186 0.000000512 0.000002462 0.000002024
     264
 0.000000094 0.000000159 0.000000207 0.000000486 0.000002608 0.000002076
     265
 0.000000105 0.000000175 0.000000227 0.000000466 0.000002738 0.000002110
     266
 0.000000115 0.000000190 0.000000247 0.000000450 0.000002849 0.000002126
     267
 0.000000125 0.000000206 0.000000268 0.000000439 0.000002939 0.000002124
     268
 0.000000135 0.000000221 0.000000290 0.000000431 0.000003007 0.000002106
     269
 0.000000144 0.000000236 0.000000314 0.000000426 0.000003053 0.000002075
     270
 0.000000154 0.000000252 0.000000340 0.000000423 0.000003077 0.000002032
     271
 0.000000163 0.000000268 0.000000368 0.000000421 0.000003080 0.000001984
     272
 0.000000173 0.000000285 0.000000400 0.000000419 0.000003063 0.000001932
     273
 0.000000183 0.000000303 0.000000436 0.000000418 0.000003026 0.000001882
     274
 0.000000192 0.000000323 0.000000474 0.000000416 0.000002972 0.000001836
     275
 0.000000202 0.000000343 0.000000517 0.000000413 0.000002902 0.000001797
     276
 0.000000211 0.000000365 0.000000562 0.000000410 0.000002819 0.000001768
     277
 0.000000220 0.000000388 0.000000610 0.000000406 0.000002726 0.000001749
     278
 0.000000230 0.000000412 0.000000660 0.000000401 0.000002625 0.000001739
     279
 0.000000239 0.000000437 0.000000711 0.000000396 0.000002519 0.000001739
     280
 0.000000248 0.000000462 0.000000763 0.000000389 0.000002411 0.000001745
     281
 0.000000256 0.000000488 0.000000813 0.000000382 0.000002304 0.000001756
     282
 0.000000265 0.000000513 0.000000862 0.000000375 0.000002200 0.000001769
     283
 0.000000273 0.000000538 0.000000908 0.000000366 0.000002103 0.000001779
     284
 0.000000280 0.000000563 0.000000951 0.000000357 0.000002013 0.000001785
     285
 0.000000287 0.000000587 0.000000990 0.000000348 0.000001932 0.000001785
     286
 0.000000294 0.000000609 0.000001025 0.000000338 0.000001862 0.000001775
     287
 0.000000300 0.000000629 0.000001057 0.000000327 0.000001802 0.000001757
     288
 0.000000305 0.000000646 0.000001086 0.000000315 0.000001753 0.000001728
     289
 0.000000310 0.000000659 0.000001113 0.000000304 0.000001714 0.000001691
     290
 0.000000315 0.000000669 0.000001139 0.000000292 0.000001684 0.000001647
     291
 0.000000319 0.000000674 0.000001163 0.000000281 0.000001662 0.000001597
     292
 0.000000323 0.000000675 0.000001186 0.000000270 0.000001646 0.000001544
     293
 0.000000326 0.000000673 0.000001207 0.000000259 0.000001635 0.000001490
     294
 0.000000328 0.000000669 0.000001228 0.000000250 0.000001628 0.000001437
     295
 0.000000331 0.000000662 0.000001246 0.000000241 0.000001624 0.000001388
     296
 0.000000332 0.000000655 0.000001263 0.000000233 0.000001622 0.000001343
     297
 0.000000334 0.000000648 0.000001277 0.000000227 0.000001621 0.000001305
     298
 0.000000335 0.000000642 0.000001289 0.000000222 0.000001621 0.000001275
     299
 0.000000336 0.000000637 0.000001297 0.000000219 0.000001621 0.000001253
     300
 0.000000336 0.000000634 0.000001302 0.000000216 0.000001621 0.000001239
     301
 0.000000336 0.000000633 0.000001304 0.000000216 0.000001621 0.000001234
     302
 0.000000337 0.000000633 0.000001303 0.000000220 0.000001616 0.000001236
     303
 0.000000341 0.000000633 0.000001302 0.000000231 0.000001598 0.000001242
     304
 0.000000356 0.000000625 0.000001299 0.000000251 0.000001571 0.000001250
     305
 0.000000410 0.000000579 0.000001295 0.000000277 0.000001535 0.000001263
     306
 0.000000504 0.000000497 0.000001291 0.000000311 0.000001492 0.000001278
     307
 0.000000569 0.000000447 0.000001286 0.000000351 0.000001445 0.000001296
     308
 0.000000606 0.000000427 0.000001281 0.000000398 0.000001397 0.000001317
     309
 0.000000632 0.000000420 0.000001276 0.000000450 0.000001349 0.000001340
     310
 0.000000654 0.000000421 0.000001270 0.000000506 0.000001305 0.000001363
     311
 0.000000673 0.000000425 0.000001264 0.000000567 0.000001266 0.000001388
     312
 0.000000692 0.000000432 0.000001259 0.000000630 0.000001233 0.000001412
     313
 0.000000709 0.000000442 0.000001254 0.000000696 0.000001207 0.000001434
     314
 0.000000727 0.000000453 0.000001249 0.000000762 0.000001187 0.000001454
     315
 0.000000743 0.000000466 0.000001245 0.000000829 0.000001174 0.000001470
     316
 0.000000758 0.000000481 0.000001241 0.000000895 0.000001167 0.000001482
     317
 0.000000772 0.000000498 0.000001239 0.000000959 0.000001164 0.000001489
     318
 0.000000785 0.000000517 0.000001237 0.000001021 0.000001164 0.000001491
     319
 0.000000796 0.000000538 0.000001238 0.000001081 0.000001166 0.000001487
     320
 0.000000806 0.000000561 0.000001239 0.000001137 0.000001169 0.000001478
     321
 0.000000814 0.000000586 0.000001243 0.000001189 0.000001172 0.000001463
     322
 0.000000822 0.000000612 0.000001249 0.000001238 0.000001175 0.000001444
     323
 0.000000829 0.000000641 0.000001258 0.000001282 0.000001178 0.000001421
     324
 0.000000835 0.000000671 0.000001268 0.000001323 0.000001182 0.000001393
     325
 0.000000842 0.000000703 0.000001281 0.000001359 0.000001187 0.000001363
     326
 0.000000848 0.000000736 0.000001296 0.000001391 0.000001194 0.000001330
     327
 0.000000854 0.000000770 0.000001313 0.000001419 0.000001204 0.000001294
     328
 0.000000861 0.000000804 0.000001331 0.000001443 0.000001219 0.000001257
     329
 0.000000868 0.000000839 0.000001351 0.000001463 0.000001240 0.000001217
     330
 0.000000876 0.000000873 0.000001370 0.000001479 0.000001266 0.000001175
     331
 0.000000884 0.000000908 0.000001389 0.000001492 0.000001298 0.000001131
     332
 0.000000892 0.000000942 0.000001407 0.000001501 0.000001335 0.000001083
     333
 0.000000901 0.000000975 0.000001424 0.000001508 0.000001377 0.000001033
     334
 0.000000910 0.000001438 0.000001008 0.000001513 0.000001422 0.000000979
     335
 0.000000919 0.000001450 0.000001041 0.000001517 0.000001468 0.000000921
     336
 0.000000928 0.000001460 0.000001073 0.000001520 0.000001514 0.000000859
     337
 0.000000937 0.000001466 0.000001106 0.000001522 0.000001557 0.000000794
     338
 0.000000946 0.000001470 0.000001138 0.000001526 0.000001596 0.000000726
     339
 0.000000954 0.000001471 0.000001169 0.000001531 0.000001630 0.000000656
     340
 0.000000962 0.000001470 0.000001201 0.000001537 0.000001656 0.000000585
     341
 0.000000969 0.000001466 0.000001232 0.000001545 0.000001676 0.000000514
     342
 0.000000976 0.000001461 0.000001262 0.000001555 0.000001688 0.000000443
     343
 0.000000982 0.000001455 0.000001290 0.000001567 0.000001694 0.000000376
     344
 0.000000988 0.000001449 0.000001317 0.000001580 0.000001693 0.000000312
     345
 0.000000993 0.000001442 0.000001342 0.000001593 0.000001688 0.000000253
     346
 0.000000998 0.000001436 0.000001364 0.000001607 0.000001679 0.000000202
     347
 0.000001001 0.000001430 0.000001383 0.000001619 0.000001669 0.000000158
     348
 0.000001004 0.000001425 0.000001398 0.000001630 0.000001660 0.000000122
     349
 0.000001006 0.000001421 0.000001409 0.000001638 0.000001652 0.000000097
     350
 0.000001008 0.000001419 0.000001416 0.000001643 0.000001646 0.000000081
     351
 0.000001008 0.000001418 0.000001418 0.000001645 0.000001645 0.000000076
     352
 0.000001007 0.000001418 0.000001416 0.000001641 0.000001650 0.000000083
     353
 0.000001002 0.000001418 0.000001410 0.000001632 0.000001666 0.000000104
     354
 0.000000995 0.000001418 0.000001399 0.000001617 0.000001691 0.000000139
     355
 0.000000986 0.000001417 0.000001384 0.000001600 0.000001721 0.000000187
     356
 0.000000974 0.000001416 0.000001363 0.000001582 0.000001754 0.000000247
     357
 0.000000960 0.000001414 0.000001337 0.000001566 0.000001785 0.000000317
     358
 0.000000945 0.000001411 0.000001305 0.000001553 0.000001810 0.000000398
     359
 0.000000929 0.000001406 0.000001267 0.000001545 0.000001827 0.000000486
     360
 0.000000913 0.000001399 0.000001223 0.000001542 0.000001831 0.000000580
     361
 0.000000897 0.000001389 0.000001174 0.000001542 0.000001823 0.000000680
     362
 0.000000881 0.000001375 0.000001120 0.000001544 0.000001802 0.000000782
     363
 0.000000866 0.000001356 0.000001062 0.000001545 0.000001769 0.000000887
     364
 0.000000852 0.000001331 0.000001001 0.000001545 0.000001726 0.000000992
     365
 0.000000838 0.000001301 0.000000938 0.000001540 0.000001677 0.000001095
     366
 0.000000824 0.000001264 0.000000874 0.000001529 0.000001623 0.000001194
     367
 0.000000809 0.000001220 0.000000811 0.000001511 0.000001570 0.000001285
     368
 0.000000793 0.000001171 0.000000748 0.000001487 0.000001519 0.000001365
     369
 0.000000775 0.000001115 0.000000688 0.000001457 0.000001473 0.000001431
     370
 0.000000754 0.000001054 0.000000630 0.000001422 0.000001432 0.000001479
     371
 0.000000729 0.000000989 0.000000575 0.000001385 0.000001397 0.000001505
     372
 0.000000700 0.000000920 0.000000524 0.000001348 0.000001366 0.000001509
     373
 0.000000666 0.000000848 0.000000477 0.000001313 0.000001339 0.000001490
     374
 0.000000628 0.000000775 0.000000435 0.000001280 0.000001313 0.000001448
     375
 0.000000586 0.000000702 0.000000396 0.000001251 0.000001287 0.000001386
     376
 0.000000541 0.000000629 0.000000363 0.000001228 0.000001260 0.000001309
     377
 0.000000493 0.000000559 0.000000333 0.000001209 0.000001233 0.000001223
     378
 0.000000444 0.000000492 0.000000308 0.000001194 0.000001206 0.000001138
     379
 0.000000397 0.000000429 0.000000286 0.000001183 0.000001180 0.000001064
     380
 0.000000352 0.000000372 0.000000267 0.000001175 0.000001157 0.000001011
     381
 0.000000310 0.000000320 0.000000251 0.000001168 0.000001137 0.000000993
     382
 0.000000274 0.000000275 0.000000237 0.000001162 0.000001121 0.000001022
     383
 0.000000244 0.000000237 0.000000225 0.000001156 0.000001109 0.000001109
     384
 0.000000222 0.000000205 0.000000213 0.000001149 0.000001102 0.000001267
     385
 0.000000206 0.000000180 0.000000203 0.000001141 0.000001097 0.000001502
     386
 0.000000197 0.000000160 0.000000194 0.000001132 0.000001094 0.000001820
     387
 0.000000192 0.000000146 0.000000189 0.000001122 0.000001091 0.000002223
     388
 0.000000190 0.000000135 0.000000188 0.000001111 0.000001088 0.000002707
     389
 0.000000187 0.000000129 0.000000193 0.000001100 0.000001083 0.000003263
     390
 0.000000185 0.000000125 0.000000203 0.000001088 0.000001077 0.000003880
     391
 0.000000181 0.000000123 0.000000219 0.000001078 0.000001070 0.000004540
     392
 0.000000175 0.000000123 0.000000239 0.000001069 0.000001063 0.000005224
     393
 0.000000169 0.000000123 0.000000261 0.000001061 0.000001056 0.000005910
     394
 0.000000162 0.000000124 0.000000286 0.000001055 0.000001050 0.000006576
     395
 0.000000155 0.000000125 0.000000311 0.000001051 0.000001045 0.000007199
     396
 0.000000148 0.000000127 0.000000335 0.000001048 0.000001043 0.000007761
     397
 0.000000142 0.000000128 0.000000357 0.000001046 0.000001042 0.000008244
     398
 0.000000137 0.000000129 0.000000375 0.000001046 0.000001043 0.000008633
     399
 0.000000133 0.000000129 0.000000388 0.000001045 0.000001044 0.000008919
     400
 0.000000131 0.000000130 0.000000397 0.000001045 0.000001045 0.000009094
     401
 0.000000130 0.000000130 0.000000400 0.000001045 0.000001045 0.000009152

     MATDYN       :     12.02s CPU     19.99s WALL


   This run was terminated on:  20: 1:13   7May2019            

=------------------------------------------------------------------------------=
   JOB DONE.
=------------------------------------------------------------------------------=
