
     Program MATDYN v.6.5 starts on 22Jul2020 at 15:12:14 

     This program is part of the open-source Quantum ESPRESSO suite
     for quantum simulation of materials; please cite
         "P. Giannozzi et al., J. Phys.:Condens. Matter 21 395502 (2009);
         "P. Giannozzi et al., J. Phys.:Condens. Matter 29 465901 (2017);
          URL http://www.quantum-espresso.org", 
     in publications or presentations arising from this work. More details at
     http://www.quantum-espresso.org/quote

     Parallel version (MPI), running on    12 processors

     MPI processes distributed on     1 nodes
     R & G space division:  proc/nbgrp/npool/nimage =      12
 mass for atomic type   1 not given; uses mass from file ir.fc                                                                                                                                                                                                                                                           
Norm of the difference between old and new effective charges:    0.00000000000000000000
Norm of the difference between old and new force-constants:   0.00002157847371976347
     Message from routine matdyn:
     Z* not found in file ir.fc, TO-LO splitting at q=0 will be absent!
     A direction for q was not specified:TO-LO splitting will be absent
     Message from routine matdyn:
     Z* not found in file ir.fc, TO-LO splitting at q=0 will be absent!
     A direction for q was not specified:TO-LO splitting will be absent
     Message from routine matdyn:
     Z* not found in file ir.fc, TO-LO splitting at q=0 will be absent!
     A direction for q was not specified:TO-LO splitting will be absent

  Gamma lines for all modes [Rydberg] 

Norm of the difference between old and new effective charges:    0.00000000000000000000
Norm of the difference between old and new force-constants:   0.00000000688888280852
 Broadening   0.0050
       1
 0.000008413 0.000008413 0.000011035
       2
 0.000008263 0.000008263 0.000010978
       3
 0.000007831 0.000007831 0.000010810
       4
 0.000007171 0.000007171 0.000010540
       5
 0.000006366 0.000006366 0.000010183
       6
 0.000005513 0.000005513 0.000009755
       7
 0.000004711 0.000004711 0.000009275
       8
 0.000004049 0.000004049 0.000008761
       9
 0.000003593 0.000003593 0.000008230
      10
 0.000003378 0.000003378 0.000007695
      11
 0.000003409 0.000003409 0.000007170
      12
 0.000003659 0.000003659 0.000006666
      13
 0.000004075 0.000004075 0.000006196
      14
 0.000004594 0.000004594 0.000005769
      15
 0.000005143 0.000005143 0.000005396
      16
 0.000005657 0.000005657 0.000005088
      17
 0.000006083 0.000006083 0.000004849
      18
 0.000006386 0.000006386 0.000004682
      19
 0.000006549 0.000006549 0.000004580
      20
 0.000006576 0.000006576 0.000004531
      21
 0.000006481 0.000006481 0.000004515
      22
 0.000006290 0.000006290 0.000004506
      23
 0.000006031 0.000006031 0.000004477
      24
 0.000005729 0.000005729 0.000004400
      25
 0.000005407 0.000005407 0.000004253
      26
 0.000005077 0.000005077 0.000004022
      27
 0.000004748 0.000004748 0.000003705
      28
 0.000004420 0.000004420 0.000003310
      29
 0.000004090 0.000004090 0.000002858
      30
 0.000003752 0.000003752 0.000002377
      31
 0.000003404 0.000003404 0.000001899
      32
 0.000003041 0.000003041 0.000001458
      33
 0.000002666 0.000002666 0.000001080
      34
 0.000002282 0.000002282 0.000000786
      35
 0.000001895 0.000001895 0.000000583
      36
 0.000001516 0.000001516 0.000000470
      37
 0.000001155 0.000001155 0.000000433
      38
 0.000000822 0.000000822 0.000000454
      39
 0.000000526 0.000000526 0.000000507
      40
 0.000000275 0.000000275 0.000000569
      41
 0.000000076 0.000000076 0.000000619
      42
-0.000000070-0.000000070 0.000000641
      43
-0.000000163-0.000000163 0.000000626
      44
-0.000000209-0.000000209 0.000000574
      45
-0.000000213-0.000000213 0.000000491
      46
-0.000000187-0.000000187 0.000000385
      47
-0.000000142-0.000000142 0.000000272
      48
-0.000000090-0.000000090 0.000000165
      49
-0.000000043-0.000000043 0.000000077
      50
-0.000000011-0.000000011 0.000000020
      51
 0.000000000 0.000000000 0.000000000
      52
-0.000000000-0.000000000-0.000000002
      53
-0.000000001-0.000000001-0.000000005
      54
-0.000000001-0.000000001-0.000000008
      55
 0.000000000 0.000000000-0.000000005
      56
 0.000000005 0.000000005 0.000000009
      57
 0.000000016 0.000000016 0.000000040
      58
 0.000000035 0.000000035 0.000000094
      59
 0.000000064 0.000000064 0.000000174
      60
 0.000000105 0.000000105 0.000000283
      61
 0.000000163 0.000000163 0.000000422
      62
 0.000000238 0.000000238 0.000000588
      63
 0.000000333 0.000000333 0.000000778
      64
 0.000000450 0.000000450 0.000000987
      65
 0.000000590 0.000000590 0.000001208
      66
 0.000000754 0.000000754 0.000001434
      67
 0.000000944 0.000000944 0.000001659
      68
 0.000001157 0.000001157 0.000001877
      69
 0.000001392 0.000001392 0.000002086
      70
 0.000001646 0.000001646 0.000002284
      71
 0.000001914 0.000001914 0.000002471
      72
 0.000002190 0.000002190 0.000002651
      73
 0.000002467 0.000002467 0.000002827
      74
 0.000002736 0.000002736 0.000003006
      75
 0.000002989 0.000002989 0.000003195
      76
 0.000003215 0.000003215 0.000003399
      77
 0.000003409 0.000003409 0.000003624
      78
 0.000003562 0.000003562 0.000003876
      79
 0.000003672 0.000003672 0.000004156
      80
 0.000003737 0.000003737 0.000004468
      81
 0.000003760 0.000003760 0.000004809
      82
 0.000003748 0.000003748 0.000005179
      83
 0.000003712 0.000003712 0.000005574
      84
 0.000003664 0.000003664 0.000005989
      85
 0.000003621 0.000003621 0.000006419
      86
 0.000003599 0.000003599 0.000006859
      87
 0.000003614 0.000003614 0.000007304
      88
 0.000003682 0.000003682 0.000007748
      89
 0.000003813 0.000003813 0.000008186
      90
 0.000004015 0.000004015 0.000008614
      91
 0.000004287 0.000004287 0.000009026
      92
 0.000004626 0.000004626 0.000009419
      93
 0.000005019 0.000005019 0.000009788
      94
 0.000005449 0.000005449 0.000010128
      95
 0.000005896 0.000005896 0.000010436
      96
 0.000006333 0.000006333 0.000010705
      97
 0.000006736 0.000006736 0.000010933
      98
 0.000007081 0.000007081 0.000011115
      99
 0.000007344 0.000007344 0.000011247
     100
 0.000007509 0.000007509 0.000011328
     101
 0.000007565 0.000007565 0.000011355
     102
 0.000007544 0.000007565 0.000011349
     103
 0.000007481 0.000007563 0.000011332
     104
 0.000007379 0.000007560 0.000011305
     105
 0.000007240 0.000007556 0.000011270
     106
 0.000007070 0.000007554 0.000011229
     107
 0.000006875 0.000007552 0.000011185
     108
 0.000006660 0.000007554 0.000011140
     109
 0.000006433 0.000007560 0.000011098
     110
 0.000006202 0.000007572 0.000011062
     111
 0.000005973 0.000007593 0.000011036
     112
 0.000005754 0.000007624 0.000011021
     113
 0.000005552 0.000007668 0.000011021
     114
 0.000005373 0.000007727 0.000011038
     115
 0.000005223 0.000007805 0.000011073
     116
 0.000005104 0.000007904 0.000011129
     117
 0.000005022 0.000008027 0.000011205
     118
 0.000004976 0.000008178 0.000011303
     119
 0.000004969 0.000008358 0.000011422
     120
 0.000005000 0.000008570 0.000011564
     121
 0.000005066 0.000008818 0.000011728
     122
 0.000005166 0.000009105 0.000011914
     123
 0.000005296 0.000009431 0.000012123
     124
 0.000005451 0.000009800 0.000012353
     125
 0.000005627 0.000010213 0.000012606
     126
 0.000005820 0.000010670 0.000012882
     127
 0.000006023 0.000011171 0.000013180
     128
 0.000006232 0.000011717 0.000013503
     129
 0.000006441 0.000012306 0.000013849
     130
 0.000006646 0.000012934 0.000014219
     131
 0.000006843 0.000013601 0.000014611
     132
 0.000007028 0.000014301 0.000015024
     133
 0.000007199 0.000015034 0.000015452
     134
 0.000007351 0.000015796 0.000015889
     135
 0.000007485 0.000016588 0.000016324
     136
 0.000007598 0.000017411 0.000016742
     137
 0.000007690 0.000018270 0.000017123
     138
 0.000007762 0.000019174 0.000017440
     139
 0.000007812 0.000020137 0.000017662
     140
 0.000007842 0.000021179 0.000017749
     141
 0.000007853 0.000022322 0.000017659
     142
 0.000007847 0.000023594 0.000017343
     143
 0.000007824 0.000025013 0.000016763
     144
 0.000007786 0.000026582 0.000015896
     145
 0.000007734 0.000028257 0.000014769
     146
 0.000007671 0.000029927 0.000013476
     147
 0.000007597 0.000031409 0.000012188
     148
 0.000007514 0.000032495 0.000011103
     149
 0.000007423 0.000033039 0.000010360
     150
 0.000007326 0.000033013 0.000009984
     151
 0.000007225 0.000032482 0.000009913
     152
 0.000007509 0.000034449 0.000009738
     153
 0.000007725 0.000035784 0.000009513
     154
 0.000007852 0.000036421 0.000009256
     155
 0.000007881 0.000008987 0.000036342
     156
 0.000007809 0.000008731 0.000035575
     157
 0.000007645 0.000008512 0.000034188
     158
 0.000007403 0.000008347 0.000032283
     159
 0.000007102 0.000008250 0.000029984
     160
 0.000006766 0.000008222 0.000027426
     161
 0.000006418 0.000008256 0.000024745
     162
 0.000006079 0.000008335 0.000022065
     163
 0.000005766 0.000008432 0.000019493
     164
 0.000005492 0.000008518 0.000017109
     165
 0.000005260 0.000008559 0.000014968
     166
 0.000005069 0.000008525 0.000013099
     167
 0.000004914 0.000008392 0.000011507
     168
 0.000004781 0.000008144 0.000010176
     169
 0.000004656 0.000007776 0.000009078
     170
 0.000004525 0.000007296 0.000008179
     171
 0.000004371 0.000006719 0.000007439
     172
 0.000004183 0.000006073 0.000006822
     173
 0.000003953 0.000005389 0.000006299
     174
 0.000003677 0.000004702 0.000005844
     175
 0.000003358 0.000004044 0.000005440
     176
 0.000003001 0.000003442 0.000005077
     177
 0.000002619 0.000002918 0.000004746
     178
 0.000002224 0.000002482 0.000004445
     179
 0.000001832 0.000002134 0.000004169
     180
 0.000001457 0.000001867 0.000003913
     181
 0.000001114 0.000001665 0.000003674
     182
 0.000000814 0.000001511 0.000003443
     183
 0.000000565 0.000001381 0.000003214
     184
 0.000000369 0.000001259 0.000002978
     185
 0.000000227 0.000001128 0.000002732
     186
 0.000000134 0.000000979 0.000002470
     187
 0.000000084 0.000000811 0.000002194
     188
 0.000000067 0.000000626 0.000001907
     189
 0.000000072 0.000000434 0.000001616
     190
 0.000000090 0.000000248 0.000001329
     191
 0.000000112 0.000000081 0.000001056
     192
 0.000000129-0.000000056 0.000000807
     193
 0.000000138-0.000000153 0.000000590
     194
 0.000000136-0.000000207 0.000000410
     195
 0.000000123-0.000000220 0.000000268
     196
 0.000000100-0.000000198 0.000000163
     197
 0.000000073-0.000000154 0.000000090
     198
 0.000000045-0.000000099 0.000000044
     199
 0.000000022-0.000000048 0.000000017
     200
 0.000000006-0.000000013 0.000000004
     201
 0.000000000 0.000000000 0.000000000
     202
-0.000000000-0.000000014 0.000000011
     203
-0.000000002-0.000000053 0.000000044
     204
-0.000000003-0.000000108 0.000000100
     205
-0.000000003-0.000000165 0.000000177
     206
 0.000000000-0.000000206 0.000000276
     207
 0.000000008-0.000000218 0.000000394
     208
 0.000000022-0.000000187 0.000000529
     209
 0.000000044-0.000000106 0.000000676
     210
 0.000000078 0.000000026 0.000000836
     211
 0.000000122 0.000000203 0.000001007
     212
 0.000000178 0.000000414 0.000001192
     213
 0.000000243 0.000000642 0.000001398
     214
 0.000000317 0.000000871 0.000001633
     215
 0.000000395 0.000001086 0.000001906
     216
 0.000000476 0.000001274 0.000002223
     217
 0.000000557 0.000001430 0.000002586
     218
 0.000000638 0.000001555 0.000002989
     219
 0.000000721 0.000001659 0.000003418
     220
 0.000000812 0.000001757 0.000003851
     221
 0.000000916 0.000001869 0.000004261
     222
 0.000001043 0.000002021 0.000004618
     223
 0.000001202 0.000002234 0.000004897
     224
 0.000001401 0.000002527 0.000005082
     225
 0.000001645 0.000002913 0.000005171
     226
 0.000001936 0.000003393 0.000005179
     227
 0.000002266 0.000003960 0.000005140
     228
 0.000002621 0.000004593 0.000005099
     229
 0.000002981 0.000005263 0.000005112
     230
 0.000003322 0.000005933 0.000005237
     231
 0.000003616 0.000006563 0.000005521
     232
 0.000003845 0.000007113 0.000005990
     233
 0.000003996 0.000007552 0.000006650
     234
 0.000004070 0.000007857 0.000007475
     235
 0.000004081 0.000008020 0.000008418
     236
 0.000004056 0.000008047 0.000009412
     237
 0.000004027 0.000007960 0.000010383
     238
 0.000004029 0.000007794 0.000011261
     239
 0.000004094 0.000007591 0.000011987
     240
 0.000004245 0.000007394 0.000012523
     241
 0.000004498 0.000007246 0.000012846
     242
 0.000004860 0.000007178 0.000012952
     243
 0.000005328 0.000007210 0.000012847
     244
 0.000005879 0.000007347 0.000012560
     245
 0.000006460 0.000007581 0.000012144
     246
 0.000007009 0.000007889 0.000011662
     247
 0.000007474 0.000008244 0.000011162
     248
 0.000007828 0.000008615 0.000010676
     249
 0.000008061 0.000008971 0.000010230
     250
 0.000008181 0.000009289 0.000009848
     251
 0.000008213 0.000009555 0.000009555
     252
 0.000008228 0.000009316 0.000009788
     253
 0.000008272 0.000009073 0.000010009
     254
 0.000008345 0.000008833 0.000010213
     255
 0.000008443 0.000008600 0.000010398
     256
 0.000008563 0.000008379 0.000010560
     257
 0.000008699 0.000008172 0.000010697
     258
 0.000008849 0.000007984 0.000010807
     259
 0.000009004 0.000007817 0.000010888
     260
 0.000009160 0.000007673 0.000010941
     261
 0.000009311 0.000007553 0.000010967
     262
 0.000009449 0.000007457 0.000010966
     263
 0.000009570 0.000007386 0.000010940
     264
 0.000009668 0.000007336 0.000010892
     265
 0.000009738 0.000007307 0.000010825
     266
 0.000009776 0.000007295 0.000010741
     267
 0.000009779 0.000007298 0.000010646
     268
 0.000009745 0.000007313 0.000010541
     269
 0.000009673 0.000007336 0.000010431
     270
 0.000009565 0.000007363 0.000010319
     271
 0.000009421 0.000007393 0.000010209
     272
 0.000009244 0.000007421 0.000010103
     273
 0.000009040 0.000007446 0.000010005
     274
 0.000008812 0.000007467 0.000009916
     275
 0.000008567 0.000007482 0.000009840
     276
 0.000008311 0.000007490 0.000009777
     277
 0.000008052 0.000007493 0.000009730
     278
 0.000007797 0.000007491 0.000009698
     279
 0.000007554 0.000007486 0.000009681
     280
 0.000007328 0.000007478 0.000009681
     281
 0.000007127 0.000007471 0.000009697
     282
 0.000006957 0.000007467 0.000009728
     283
 0.000006821 0.000007468 0.000009772
     284
 0.000006724 0.000007476 0.000009830
     285
 0.000006667 0.000007492 0.000009899
     286
 0.000006651 0.000007519 0.000009977
     287
 0.000006676 0.000007556 0.000010064
     288
 0.000006740 0.000007604 0.000010156
     289
 0.000006838 0.000007663 0.000010252
     290
 0.000006965 0.000007731 0.000010350
     291
 0.000007117 0.000007808 0.000010448
     292
 0.000007287 0.000007890 0.000010544
     293
 0.000007466 0.000007974 0.000010636
     294
 0.000007648 0.000008059 0.000010721
     295
 0.000007824 0.000008141 0.000010800
     296
 0.000007988 0.000008217 0.000010868
     297
 0.000008132 0.000008284 0.000010927
     298
 0.000008251 0.000008338 0.000010973
     299
 0.000008340 0.000008379 0.000011007
     300
 0.000008395 0.000008405 0.000011028
     301
 0.000008413 0.000008413 0.000011035
     302
 0.000008406 0.000008407 0.000011031
     303
 0.000008385 0.000008387 0.000011021
     304
 0.000008351 0.000008356 0.000011004
     305
 0.000008303 0.000008313 0.000010980
     306
 0.000008242 0.000008261 0.000010951
     307
 0.000008170 0.000008203 0.000010915
     308
 0.000008086 0.000008139 0.000010875
     309
 0.000007991 0.000008074 0.000010829
     310
 0.000007887 0.000008011 0.000010780
     311
 0.000007774 0.000007953 0.000010727
     312
 0.000007654 0.000007904 0.000010671
     313
 0.000007528 0.000007867 0.000010614
     314
 0.000007398 0.000007848 0.000010556
     315
 0.000007264 0.000007849 0.000010497
     316
 0.000007128 0.000007876 0.000010439
     317
 0.000006992 0.000007932 0.000010382
     318
 0.000006856 0.000008022 0.000010326
     319
 0.000006723 0.000008148 0.000010274
     320
 0.000006593 0.000008316 0.000010224
     321
 0.000006468 0.000008527 0.000010178
     322
 0.000006349 0.000008785 0.000010136
     323
 0.000006237 0.000009093 0.000010099
     324
 0.000006134 0.000009453 0.000010067
     325
 0.000006040 0.000009865 0.000010039
     326
 0.000005957 0.000010333 0.000010017
     327
 0.000005884 0.000010855 0.000010000
     328
 0.000005823 0.000011432 0.000009988
     329
 0.000005774 0.000012064 0.000009981
     330
 0.000005738 0.000012750 0.000009978
     331
 0.000005714 0.000013488 0.000009980
     332
 0.000005704 0.000014275 0.000009985
     333
 0.000005706 0.000015109 0.000009993
     334
 0.000005721 0.000015986 0.000010004
     335
 0.000005749 0.000016903 0.000010017
     336
 0.000005788 0.000017855 0.000010031
     337
 0.000005839 0.000018838 0.000010046
     338
 0.000005901 0.000019846 0.000010060
     339
 0.000005972 0.000020874 0.000010074
     340
 0.000006053 0.000021915 0.000010085
     341
 0.000006142 0.000022965 0.000010094
     342
 0.000006238 0.000024015 0.000010099
     343
 0.000006340 0.000025061 0.000010101
     344
 0.000006446 0.000026095 0.000010098
     345
 0.000006557 0.000027112 0.000010090
     346
 0.000006669 0.000028104 0.000010076
     347
 0.000006783 0.000029065 0.000010057
     348
 0.000006897 0.000029989 0.000010031
     349
 0.000007009 0.000030870 0.000009998
     350
 0.000007119 0.000031703 0.000009959
     351
 0.000007225 0.000032482 0.000009913
     352
 0.000007121 0.000031097 0.000010308
     353
 0.000007022 0.000028785 0.000011088
     354
 0.000006933 0.000026000 0.000011879
     355
 0.000006862 0.000023071 0.000012469
     356
 0.000006817 0.000020224 0.000012763
     357
 0.000006804 0.000017603 0.000012754
     358
 0.000006824 0.000015280 0.000012496
     359
 0.000006874 0.000013269 0.000012072
     360
 0.000006941 0.000011553 0.000011571
     361
 0.000007007 0.000010103 0.000011057
     362
 0.000007050 0.000008887 0.000010562
     363
 0.000007049 0.000007884 0.000010087
     364
 0.000006982 0.000007072 0.000009616
     365
 0.000006836 0.000006424 0.000009134
     366
 0.000006606 0.000005906 0.000008632
     367
 0.000006297 0.000005477 0.000008121
     368
 0.000005923 0.000005095 0.000007625
     369
 0.000005504 0.000004723 0.000007169
     370
 0.000005067 0.000004340 0.000006775
     371
 0.000004638 0.000003937 0.000006455
     372
 0.000004238 0.000003521 0.000006203
     373
 0.000003886 0.000003108 0.000006004
     374
 0.000003591 0.000002717 0.000005830
     375
 0.000003355 0.000002366 0.000005652
     376
 0.000003171 0.000002068 0.000005439
     377
 0.000003027 0.000001829 0.000005171
     378
 0.000002909 0.000001647 0.000004836
     379
 0.000002800 0.000001512 0.000004437
     380
 0.000002685 0.000001411 0.000003986
     381
 0.000002551 0.000001329 0.000003506
     382
 0.000002391 0.000001250 0.000003022
     383
 0.000002199 0.000001162 0.000002561
     384
 0.000001976 0.000001058 0.000002146
     385
 0.000001727 0.000000935 0.000001791
     386
 0.000001458 0.000000795 0.000001501
     387
 0.000001180 0.000000644 0.000001276
     388
 0.000000903 0.000000489 0.000001105
     389
 0.000000640 0.000000338 0.000000976
     390
 0.000000402 0.000000202 0.000000874
     391
 0.000000199 0.000000085 0.000000785
     392
 0.000000038-0.000000005 0.000000697
     393
-0.000000076-0.000000068 0.000000606
     394
-0.000000143-0.000000102 0.000000507
     395
-0.000000168-0.000000112 0.000000404
     396
-0.000000158-0.000000102 0.000000301
     397
-0.000000126-0.000000079 0.000000204
     398
-0.000000051-0.000000082 0.000000120
     399
-0.000000025-0.000000041 0.000000055
     400
-0.000000007-0.000000011 0.000000014
     401
 0.000000000 0.000000000 0.000000000
Norm of the difference between old and new effective charges:    0.00000000000000000000
Norm of the difference between old and new force-constants:   0.00000041105495255120
 Broadening   0.0100
       1
 0.000006482 0.000006482 0.000010427
       2
 0.000006439 0.000006439 0.000010397
       3
 0.000006315 0.000006315 0.000010306
       4
 0.000006124 0.000006124 0.000010157
       5
 0.000005888 0.000005888 0.000009953
       6
 0.000005631 0.000005631 0.000009700
       7
 0.000005381 0.000005381 0.000009404
       8
 0.000005162 0.000005162 0.000009072
       9
 0.000004994 0.000004994 0.000008713
      10
 0.000004889 0.000004889 0.000008336
      11
 0.000004849 0.000004849 0.000007950
      12
 0.000004868 0.000004868 0.000007562
      13
 0.000004932 0.000004932 0.000007177
      14
 0.000005020 0.000005020 0.000006801
      15
 0.000005109 0.000005109 0.000006434
      16
 0.000005174 0.000005174 0.000006075
      17
 0.000005195 0.000005195 0.000005719
      18
 0.000005156 0.000005156 0.000005362
      19
 0.000005046 0.000005046 0.000004996
      20
 0.000004866 0.000004866 0.000004617
      21
 0.000004620 0.000004620 0.000004220
      22
 0.000004322 0.000004322 0.000003804
      23
 0.000003987 0.000003987 0.000003371
      24
 0.000003635 0.000003635 0.000002926
      25
 0.000003285 0.000003285 0.000002480
      26
 0.000002952 0.000002952 0.000002043
      27
 0.000002650 0.000002650 0.000001630
      28
 0.000002383 0.000002383 0.000001254
      29
 0.000002155 0.000002155 0.000000927
      30
 0.000001961 0.000001961 0.000000659
      31
 0.000001794 0.000001794 0.000000456
      32
 0.000001643 0.000001643 0.000000317
      33
 0.000001498 0.000001498 0.000000239
      34
 0.000001350 0.000001350 0.000000214
      35
 0.000001193 0.000001193 0.000000229
      36
 0.000001023 0.000001023 0.000000272
      37
 0.000000842 0.000000842 0.000000328
      38
 0.000000654 0.000000654 0.000000385
      39
 0.000000469 0.000000469 0.000000432
      40
 0.000000295 0.000000295 0.000000460
      41
 0.000000143 0.000000143 0.000000466
      42
 0.000000019 0.000000019 0.000000448
      43
-0.000000070-0.000000070 0.000000409
      44
-0.000000123-0.000000123 0.000000353
      45
-0.000000142-0.000000142 0.000000286
      46
-0.000000133-0.000000133 0.000000215
      47
-0.000000105-0.000000105 0.000000147
      48
-0.000000069-0.000000069 0.000000086
      49
-0.000000034-0.000000034 0.000000040
      50
-0.000000009-0.000000009 0.000000010
      51
-0.000000000 0.000000000-0.000000000
      52
-0.000000002-0.000000002-0.000000001
      53
-0.000000009-0.000000009-0.000000004
      54
-0.000000019-0.000000019-0.000000005
      55
-0.000000030-0.000000030-0.000000003
      56
-0.000000038-0.000000038 0.000000009
      57
-0.000000042-0.000000042 0.000000036
      58
-0.000000037-0.000000037 0.000000081
      59
-0.000000020-0.000000020 0.000000151
      60
 0.000000013 0.000000013 0.000000247
      61
 0.000000065 0.000000065 0.000000372
      62
 0.000000139 0.000000139 0.000000527
      63
 0.000000235 0.000000235 0.000000709
      64
 0.000000354 0.000000354 0.000000916
      65
 0.000000497 0.000000497 0.000001143
      66
 0.000000660 0.000000660 0.000001385
      67
 0.000000843 0.000000843 0.000001636
      68
 0.000001040 0.000001040 0.000001890
      69
 0.000001248 0.000001248 0.000002142
      70
 0.000001462 0.000001462 0.000002387
      71
 0.000001676 0.000001676 0.000002623
      72
 0.000001885 0.000001885 0.000002848
      73
 0.000002084 0.000002084 0.000003064
      74
 0.000002268 0.000002268 0.000003272
      75
 0.000002435 0.000002435 0.000003477
      76
 0.000002581 0.000002581 0.000003682
      77
 0.000002706 0.000002706 0.000003894
      78
 0.000002809 0.000002809 0.000004115
      79
 0.000002891 0.000002891 0.000004351
      80
 0.000002956 0.000002956 0.000004603
      81
 0.000003005 0.000003005 0.000004872
      82
 0.000003043 0.000003043 0.000005157
      83
 0.000003075 0.000003075 0.000005455
      84
 0.000003104 0.000003104 0.000005760
      85
 0.000003136 0.000003136 0.000006066
      86
 0.000003174 0.000003174 0.000006365
      87
 0.000003221 0.000003221 0.000006649
      88
 0.000003280 0.000003280 0.000006911
      89
 0.000003351 0.000003351 0.000007143
      90
 0.000003434 0.000003434 0.000007341
      91
 0.000003529 0.000003529 0.000007501
      92
 0.000003633 0.000003633 0.000007622
      93
 0.000003742 0.000003742 0.000007706
      94
 0.000003853 0.000003853 0.000007757
      95
 0.000003962 0.000003962 0.000007779
      96
 0.000004064 0.000004064 0.000007780
      97
 0.000004154 0.000004154 0.000007767
      98
 0.000004230 0.000004230 0.000007747
      99
 0.000004286 0.000004286 0.000007728
     100
 0.000004321 0.000004321 0.000007714
     101
 0.000004333 0.000004333 0.000007709
     102
 0.000004330 0.000004338 0.000007715
     103
 0.000004324 0.000004354 0.000007735
     104
 0.000004314 0.000004380 0.000007766
     105
 0.000004300 0.000004416 0.000007810
     106
 0.000004283 0.000004462 0.000007864
     107
 0.000004263 0.000004516 0.000007928
     108
 0.000004242 0.000004580 0.000008001
     109
 0.000004221 0.000004652 0.000008080
     110
 0.000004201 0.000004732 0.000008165
     111
 0.000004183 0.000004820 0.000008255
     112
 0.000004169 0.000004918 0.000008347
     113
 0.000004160 0.000005025 0.000008443
     114
 0.000004159 0.000005143 0.000008540
     115
 0.000004166 0.000005272 0.000008638
     116
 0.000004184 0.000005415 0.000008737
     117
 0.000004214 0.000005573 0.000008838
     118
 0.000004257 0.000005747 0.000008940
     119
 0.000004314 0.000005940 0.000009045
     120
 0.000004387 0.000006152 0.000009152
     121
 0.000004474 0.000006385 0.000009264
     122
 0.000004575 0.000006640 0.000009381
     123
 0.000004691 0.000006918 0.000009503
     124
 0.000004819 0.000007217 0.000009633
     125
 0.000004958 0.000007538 0.000009770
     126
 0.000005105 0.000007878 0.000009914
     127
 0.000005258 0.000008236 0.000010067
     128
 0.000005414 0.000008609 0.000010227
     129
 0.000005568 0.000008994 0.000010394
     130
 0.000005719 0.000009387 0.000010566
     131
 0.000005861 0.000009784 0.000010742
     132
 0.000005993 0.000010181 0.000010919
     133
 0.000006111 0.000010575 0.000011095
     134
 0.000006212 0.000010963 0.000011264
     135
 0.000006295 0.000011342 0.000011423
     136
 0.000006358 0.000011713 0.000011564
     137
 0.000006399 0.000012075 0.000011679
     138
 0.000006420 0.000012432 0.000011760
     139
 0.000006420 0.000012790 0.000011796
     140
 0.000006401 0.000013158 0.000011774
     141
 0.000006365 0.000013544 0.000011679
     142
 0.000006314 0.000013962 0.000011496
     143
 0.000006251 0.000014421 0.000011214
     144
 0.000006179 0.000014926 0.000010828
     145
 0.000006102 0.000015465 0.000010348
     146
 0.000006023 0.000016003 0.000009811
     147
 0.000005945 0.000016478 0.000009279
     148
 0.000005871 0.000016819 0.000008825
     149
 0.000005804 0.000016977 0.000008500
     150
 0.000005746 0.000016944 0.000008315
     151
 0.000005697 0.000016743 0.000008248
     152
 0.000005813 0.000017444 0.000008290
     153
 0.000005894 0.000017896 0.000008300
     154
 0.000005935 0.000018083 0.000008285
     155
 0.000005934 0.000008255 0.000018006
     156
 0.000005894 0.000008225 0.000017682
     157
 0.000005819 0.000008211 0.000017143
     158
 0.000005719 0.000008226 0.000016429
     159
 0.000005601 0.000008278 0.000015585
     160
 0.000005473 0.000008369 0.000014657
     161
 0.000005342 0.000008491 0.000013688
     162
 0.000005212 0.000008628 0.000012715
     163
 0.000005084 0.000008759 0.000011766
     164
 0.000004956 0.000008855 0.000010860
     165
 0.000004823 0.000008890 0.000010007
     166
 0.000004681 0.000008836 0.000009209
     167
 0.000004523 0.000008672 0.000008466
     168
 0.000004342 0.000008387 0.000007770
     169
 0.000004134 0.000007976 0.000007118
     170
 0.000003896 0.000007448 0.000006504
     171
 0.000003629 0.000006822 0.000005925
     172
 0.000003335 0.000006123 0.000005384
     173
 0.000003020 0.000005385 0.000004883
     174
 0.000002692 0.000004642 0.000004428
     175
 0.000002359 0.000003928 0.000004023
     176
 0.000002031 0.000003271 0.000003672
     177
 0.000001718 0.000002694 0.000003378
     178
 0.000001428 0.000002210 0.000003139
     179
 0.000001166 0.000001822 0.000002947
     180
 0.000000937 0.000001525 0.000002795
     181
 0.000000743 0.000001305 0.000002669
     182
 0.000000582 0.000001145 0.000002556
     183
 0.000000452 0.000001024 0.000002442
     184
 0.000000350 0.000000923 0.000002314
     185
 0.000000270 0.000000826 0.000002165
     186
 0.000000209 0.000000722 0.000001989
     187
 0.000000162 0.000000603 0.000001787
     188
 0.000000125 0.000000471 0.000001563
     189
 0.000000095 0.000000332 0.000001325
     190
 0.000000070 0.000000194 0.000001084
     191
 0.000000050 0.000000067 0.000000853
     192
 0.000000033-0.000000038 0.000000640
     193
 0.000000020-0.000000115 0.000000456
     194
 0.000000010-0.000000158 0.000000305
     195
 0.000000003-0.000000170 0.000000189
     196
-0.000000001-0.000000155 0.000000107
     197
-0.000000002-0.000000120 0.000000054
     198
-0.000000002-0.000000078 0.000000023
     199
-0.000000001-0.000000038 0.000000008
     200
-0.000000000-0.000000010 0.000000002
     201
-0.000000000 0.000000000-0.000000000
     202
-0.000000004-0.000000011 0.000000005
     203
-0.000000014-0.000000042 0.000000022
     204
-0.000000029-0.000000084 0.000000053
     205
-0.000000042-0.000000126 0.000000102
     206
-0.000000048-0.000000154 0.000000171
     207
-0.000000043-0.000000156 0.000000262
     208
-0.000000023-0.000000122 0.000000376
     209
 0.000000015-0.000000048 0.000000510
     210
 0.000000069 0.000000065 0.000000660
     211
 0.000000138 0.000000211 0.000000821
     212
 0.000000217 0.000000380 0.000000988
     213
 0.000000301 0.000000560 0.000001158
     214
 0.000000384 0.000000739 0.000001330
     215
 0.000000462 0.000000909 0.000001505
     216
 0.000000533 0.000001064 0.000001687
     217
 0.000000597 0.000001204 0.000001881
     218
 0.000000657 0.000001336 0.000002089
     219
 0.000000718 0.000001466 0.000002314
     220
 0.000000787 0.000001607 0.000002555
     221
 0.000000868 0.000001769 0.000002807
     222
 0.000000968 0.000001958 0.000003060
     223
 0.000001088 0.000002180 0.000003305
     224
 0.000001230 0.000002433 0.000003530
     225
 0.000001390 0.000002712 0.000003727
     226
 0.000001566 0.000003006 0.000003893
     227
 0.000001751 0.000003306 0.000004031
     228
 0.000001942 0.000003600 0.000004153
     229
 0.000002135 0.000003882 0.000004278
     230
 0.000002329 0.000004148 0.000004432
     231
 0.000002524 0.000004401 0.000004641
     232
 0.000002725 0.000004645 0.000004931
     233
 0.000002938 0.000004892 0.000005319
     234
 0.000003169 0.000005152 0.000005813
     235
 0.000003423 0.000005433 0.000006408
     236
 0.000003702 0.000005741 0.000007084
     237
 0.000004004 0.000006074 0.000007808
     238
 0.000004321 0.000006424 0.000008540
     239
 0.000004642 0.000006778 0.000009232
     240
 0.000004954 0.000007117 0.000009836
     241
 0.000005247 0.000007420 0.000010304
     242
 0.000005520 0.000007670 0.000010593
     243
 0.000005777 0.000007853 0.000010673
     244
 0.000006017 0.000007964 0.000010540
     245
 0.000006223 0.000008008 0.000010229
     246
 0.000006371 0.000007997 0.000009805
     247
 0.000006449 0.000007953 0.000009334
     248
 0.000006471 0.000007903 0.000008873
     249
 0.000006460 0.000007873 0.000008465
     250
 0.000006443 0.000007888 0.000008150
     251
 0.000006437 0.000007964 0.000007964
     252
 0.000006452 0.000007853 0.000008070
     253
 0.000006495 0.000007740 0.000008169
     254
 0.000006566 0.000007625 0.000008261
     255
 0.000006662 0.000007512 0.000008342
     256
 0.000006780 0.000007400 0.000008412
     257
 0.000006916 0.000007292 0.000008469
     258
 0.000007067 0.000007189 0.000008511
     259
 0.000007227 0.000007090 0.000008539
     260
 0.000007391 0.000006997 0.000008551
     261
 0.000007554 0.000006909 0.000008547
     262
 0.000007711 0.000006827 0.000008528
     263
 0.000007857 0.000006751 0.000008495
     264
 0.000007987 0.000006680 0.000008448
     265
 0.000008098 0.000006613 0.000008389
     266
 0.000008186 0.000006551 0.000008321
     267
 0.000008248 0.000006492 0.000008244
     268
 0.000008282 0.000006436 0.000008162
     269
 0.000008287 0.000006382 0.000008078
     270
 0.000008264 0.000006331 0.000007994
     271
 0.000008212 0.000006281 0.000007913
     272
 0.000008134 0.000006234 0.000007837
     273
 0.000008032 0.000006187 0.000007771
     274
 0.000007908 0.000006143 0.000007716
     275
 0.000007767 0.000006101 0.000007674
     276
 0.000007612 0.000006062 0.000007649
     277
 0.000007447 0.000006026 0.000007641
     278
 0.000007278 0.000005994 0.000007652
     279
 0.000007109 0.000005966 0.000007684
     280
 0.000006944 0.000005944 0.000007736
     281
 0.000006787 0.000005928 0.000007808
     282
 0.000006642 0.000005919 0.000007900
     283
 0.000006511 0.000005917 0.000008012
     284
 0.000006398 0.000005923 0.000008141
     285
 0.000006305 0.000005936 0.000008286
     286
 0.000006231 0.000005956 0.000008445
     287
 0.000006178 0.000005983 0.000008614
     288
 0.000006145 0.000006017 0.000008792
     289
 0.000006131 0.000006056 0.000008975
     290
 0.000006133 0.000006099 0.000009160
     291
 0.000006151 0.000006146 0.000009343
     292
 0.000006180 0.000006195 0.000009521
     293
 0.000006219 0.000006244 0.000009691
     294
 0.000006263 0.000006292 0.000009850
     295
 0.000006309 0.000006337 0.000009994
     296
 0.000006355 0.000006378 0.000010121
     297
 0.000006397 0.000006414 0.000010228
     298
 0.000006432 0.000006443 0.000010314
     299
 0.000006459 0.000006464 0.000010377
     300
 0.000006476 0.000006477 0.000010414
     301
 0.000006482 0.000006482 0.000010427
     302
 0.000006478 0.000006481 0.000010421
     303
 0.000006467 0.000006477 0.000010402
     304
 0.000006448 0.000006471 0.000010370
     305
 0.000006421 0.000006464 0.000010327
     306
 0.000006388 0.000006455 0.000010271
     307
 0.000006348 0.000006446 0.000010205
     308
 0.000006302 0.000006438 0.000010129
     309
 0.000006250 0.000006432 0.000010043
     310
 0.000006193 0.000006428 0.000009948
     311
 0.000006131 0.000006429 0.000009846
     312
 0.000006066 0.000006435 0.000009738
     313
 0.000005997 0.000006448 0.000009624
     314
 0.000005926 0.000006470 0.000009506
     315
 0.000005853 0.000006501 0.000009385
     316
 0.000005780 0.000006544 0.000009263
     317
 0.000005706 0.000006600 0.000009140
     318
 0.000005632 0.000006670 0.000009018
     319
 0.000005560 0.000006755 0.000008898
     320
 0.000005491 0.000006857 0.000008781
     321
 0.000005423 0.000006977 0.000008668
     322
 0.000005360 0.000007116 0.000008560
     323
 0.000005300 0.000007274 0.000008458
     324
 0.000005245 0.000007452 0.000008363
     325
 0.000005195 0.000007651 0.000008275
     326
 0.000005151 0.000007870 0.000008195
     327
 0.000005112 0.000008110 0.000008123
     328
 0.000005079 0.000008370 0.000008060
     329
 0.000005053 0.000008651 0.000008006
     330
 0.000005034 0.000008951 0.000007960
     331
 0.000005021 0.000009269 0.000007923
     332
 0.000005015 0.000009605 0.000007896
     333
 0.000005015 0.000009957 0.000007876
     334
 0.000005021 0.000010323 0.000007865
     335
 0.000005034 0.000010702 0.000007861
     336
 0.000005052 0.000011093 0.000007864
     337
 0.000005076 0.000011492 0.000007873
     338
 0.000005105 0.000011899 0.000007888
     339
 0.000005139 0.000012310 0.000007908
     340
 0.000005177 0.000012723 0.000007932
     341
 0.000005218 0.000013137 0.000007959
     342
 0.000005262 0.000013548 0.000007989
     343
 0.000005309 0.000013954 0.000008020
     344
 0.000005358 0.000014353 0.000008053
     345
 0.000005407 0.000014742 0.000008085
     346
 0.000005458 0.000015119 0.000008117
     347
 0.000005508 0.000015481 0.000008148
     348
 0.000005557 0.000015827 0.000008177
     349
 0.000005606 0.000016154 0.000008203
     350
 0.000005653 0.000016460 0.000008227
     351
 0.000005697 0.000016743 0.000008248
     352
 0.000005679 0.000016275 0.000008375
     353
 0.000005709 0.000015529 0.000008680
     354
 0.000005777 0.000014650 0.000009021
     355
 0.000005867 0.000013734 0.000009305
     356
 0.000005962 0.000012836 0.000009479
     357
 0.000006043 0.000011981 0.000009521
     358
 0.000006095 0.000011173 0.000009434
     359
 0.000006106 0.000010399 0.000009242
     360
 0.000006069 0.000009642 0.000008975
     361
 0.000005983 0.000008887 0.000008669
     362
 0.000005852 0.000008129 0.000008348
     363
 0.000005685 0.000007376 0.000008030
     364
 0.000005490 0.000006642 0.000007723
     365
 0.000005278 0.000005945 0.000007426
     366
 0.000005058 0.000005302 0.000007137
     367
 0.000004837 0.000004723 0.000006854
     368
 0.000004619 0.000004211 0.000006573
     369
 0.000004406 0.000003761 0.000006295
     370
 0.000004196 0.000003364 0.000006015
     371
 0.000003989 0.000003012 0.000005732
     372
 0.000003781 0.000002695 0.000005440
     373
 0.000003571 0.000002407 0.000005135
     374
 0.000003359 0.000002144 0.000004813
     375
 0.000003146 0.000001907 0.000004470
     376
 0.000002936 0.000001697 0.000004109
     377
 0.000002732 0.000001516 0.000003735
     378
 0.000002537 0.000001364 0.000003355
     379
 0.000002352 0.000001241 0.000002980
     380
 0.000002179 0.000001143 0.000002622
     381
 0.000002014 0.000001063 0.000002291
     382
 0.000001856 0.000000995 0.000001995
     383
 0.000001697 0.000000929 0.000001739
     384
 0.000001534 0.000000860 0.000001523
     385
 0.000001363 0.000000781 0.000001343
     386
 0.000001180 0.000000688 0.000001193
     387
 0.000000986 0.000000582 0.000001066
     388
 0.000000787 0.000000466 0.000000952
     389
 0.000000588 0.000000345 0.000000846
     390
 0.000000399 0.000000226 0.000000743
     391
 0.000000228 0.000000118 0.000000640
     392
 0.000000087 0.000000027 0.000000538
     393
-0.000000020-0.000000041 0.000000437
     394
-0.000000089-0.000000083 0.000000341
     395
-0.000000121-0.000000101 0.000000254
     396
-0.000000122-0.000000097 0.000000177
     397
-0.000000101-0.000000078 0.000000113
     398
-0.000000052-0.000000067 0.000000063
     399
-0.000000025-0.000000034 0.000000028
     400
-0.000000007-0.000000009 0.000000007
     401
-0.000000000 0.000000000-0.000000000
Norm of the difference between old and new effective charges:    0.00000000000000000000
Norm of the difference between old and new force-constants:   0.00000109308485491266
 Broadening   0.0150
       1
 0.000006120 0.000006120 0.000010177
       2
 0.000006099 0.000006099 0.000010152
       3
 0.000006038 0.000006038 0.000010078
       4
 0.000005940 0.000005940 0.000009954
       5
 0.000005815 0.000005815 0.000009783
       6
 0.000005670 0.000005670 0.000009565
       7
 0.000005518 0.000005518 0.000009306
       8
 0.000005367 0.000005367 0.000009009
       9
 0.000005227 0.000005227 0.000008682
      10
 0.000005106 0.000005106 0.000008331
      11
 0.000005007 0.000005007 0.000007965
      12
 0.000004929 0.000004929 0.000007590
      13
 0.000004871 0.000004871 0.000007213
      14
 0.000004824 0.000004824 0.000006837
      15
 0.000004779 0.000004779 0.000006463
      16
 0.000004726 0.000004726 0.000006089
      17
 0.000004652 0.000004652 0.000005711
      18
 0.000004549 0.000004549 0.000005326
      19
 0.000004409 0.000004409 0.000004928
      20
 0.000004231 0.000004231 0.000004512
      21
 0.000004015 0.000004015 0.000004079
      22
 0.000003766 0.000003766 0.000003630
      23
 0.000003494 0.000003494 0.000003172
      24
 0.000003209 0.000003209 0.000002713
      25
 0.000002925 0.000002925 0.000002264
      26
 0.000002651 0.000002651 0.000001841
      27
 0.000002397 0.000002397 0.000001454
      28
 0.000002167 0.000002167 0.000001117
      29
 0.000001965 0.000001965 0.000000836
      30
 0.000001787 0.000001787 0.000000616
      31
 0.000001629 0.000001629 0.000000457
      32
 0.000001483 0.000001483 0.000000355
      33
 0.000001343 0.000001343 0.000000300
      34
 0.000001200 0.000001200 0.000000283
      35
 0.000001051 0.000001051 0.000000291
      36
 0.000000893 0.000000893 0.000000312
      37
 0.000000729 0.000000729 0.000000335
      38
 0.000000562 0.000000562 0.000000354
      39
 0.000000399 0.000000399 0.000000360
      40
 0.000000248 0.000000248 0.000000353
      41
 0.000000117 0.000000117 0.000000332
      42
 0.000000012 0.000000012 0.000000298
      43
-0.000000063-0.000000063 0.000000256
      44
-0.000000106-0.000000106 0.000000209
      45
-0.000000121-0.000000121 0.000000160
      46
-0.000000113-0.000000113 0.000000115
      47
-0.000000089-0.000000089 0.000000075
      48
-0.000000058-0.000000058 0.000000043
      49
-0.000000028-0.000000028 0.000000019
      50
-0.000000008-0.000000008 0.000000005
      51
 0.000000000-0.000000000 0.000000000
      52
-0.000000003-0.000000003-0.000000002
      53
-0.000000010-0.000000010-0.000000008
      54
-0.000000022-0.000000022-0.000000015
      55
-0.000000034-0.000000034-0.000000019
      56
-0.000000044-0.000000044-0.000000015
      57
-0.000000049-0.000000049 0.000000003
      58
-0.000000046-0.000000046 0.000000039
      59
-0.000000030-0.000000030 0.000000099
      60
 0.000000002 0.000000002 0.000000186
      61
 0.000000051 0.000000051 0.000000302
      62
 0.000000120 0.000000120 0.000000446
      63
 0.000000208 0.000000208 0.000000619
      64
 0.000000316 0.000000316 0.000000815
      65
 0.000000443 0.000000443 0.000001030
      66
 0.000000585 0.000000585 0.000001260
      67
 0.000000740 0.000000740 0.000001497
      68
 0.000000904 0.000000904 0.000001736
      69
 0.000001075 0.000001075 0.000001972
      70
 0.000001247 0.000001247 0.000002202
      71
 0.000001418 0.000001418 0.000002423
      72
 0.000001584 0.000001584 0.000002636
      73
 0.000001743 0.000001743 0.000002842
      74
 0.000001893 0.000001893 0.000003044
      75
 0.000002032 0.000002032 0.000003246
      76
 0.000002160 0.000002160 0.000003453
      77
 0.000002276 0.000002276 0.000003669
      78
 0.000002382 0.000002382 0.000003899
      79
 0.000002478 0.000002478 0.000004145
      80
 0.000002565 0.000002565 0.000004407
      81
 0.000002645 0.000002645 0.000004685
      82
 0.000002718 0.000002718 0.000004975
      83
 0.000002787 0.000002787 0.000005271
      84
 0.000002852 0.000002852 0.000005566
      85
 0.000002914 0.000002914 0.000005851
      86
 0.000002974 0.000002974 0.000006118
      87
 0.000003032 0.000003032 0.000006358
      88
 0.000003088 0.000003088 0.000006561
      89
 0.000003142 0.000003142 0.000006723
      90
 0.000003193 0.000003193 0.000006839
      91
 0.000003241 0.000003241 0.000006909
      92
 0.000003286 0.000003286 0.000006932
      93
 0.000003328 0.000003328 0.000006915
      94
 0.000003365 0.000003365 0.000006864
      95
 0.000003398 0.000003398 0.000006789
      96
 0.000003426 0.000003426 0.000006700
      97
 0.000003449 0.000003449 0.000006607
      98
 0.000003467 0.000003467 0.000006522
      99
 0.000003480 0.000003480 0.000006454
     100
 0.000003487 0.000003487 0.000006410
     101
 0.000003490 0.000003490 0.000006395
     102
 0.000003490 0.000003496 0.000006403
     103
 0.000003491 0.000003513 0.000006428
     104
 0.000003493 0.000003541 0.000006468
     105
 0.000003496 0.000003580 0.000006523
     106
 0.000003500 0.000003629 0.000006591
     107
 0.000003505 0.000003687 0.000006672
     108
 0.000003511 0.000003754 0.000006764
     109
 0.000003520 0.000003830 0.000006865
     110
 0.000003532 0.000003914 0.000006973
     111
 0.000003546 0.000004006 0.000007086
     112
 0.000003565 0.000004106 0.000007203
     113
 0.000003588 0.000004213 0.000007323
     114
 0.000003618 0.000004330 0.000007444
     115
 0.000003654 0.000004455 0.000007564
     116
 0.000003698 0.000004591 0.000007684
     117
 0.000003751 0.000004738 0.000007802
     118
 0.000003814 0.000004898 0.000007919
     119
 0.000003887 0.000005071 0.000008033
     120
 0.000003971 0.000005259 0.000008146
     121
 0.000004065 0.000005462 0.000008257
     122
 0.000004171 0.000005681 0.000008368
     123
 0.000004286 0.000005917 0.000008477
     124
 0.000004411 0.000006169 0.000008587
     125
 0.000004543 0.000006436 0.000008697
     126
 0.000004682 0.000006717 0.000008808
     127
 0.000004825 0.000007011 0.000008920
     128
 0.000004971 0.000007316 0.000009032
     129
 0.000005115 0.000007628 0.000009145
     130
 0.000005256 0.000007945 0.000009258
     131
 0.000005392 0.000008264 0.000009369
     132
 0.000005519 0.000008582 0.000009479
     133
 0.000005635 0.000008895 0.000009585
     134
 0.000005739 0.000009201 0.000009685
     135
 0.000005828 0.000009497 0.000009777
     136
 0.000005901 0.000009783 0.000009858
     137
 0.000005958 0.000010057 0.000009924
     138
 0.000005998 0.000010321 0.000009970
     139
 0.000006022 0.000010577 0.000009991
     140
 0.000006031 0.000010829 0.000009981
     141
 0.000006025 0.000011082 0.000009933
     142
 0.000006007 0.000011341 0.000009840
     143
 0.000005980 0.000011614 0.000009695
     144
 0.000005944 0.000011901 0.000009497
     145
 0.000005904 0.000012199 0.000009251
     146
 0.000005861 0.000012488 0.000008977
     147
 0.000005817 0.000012739 0.000008705
     148
 0.000005776 0.000012917 0.000008473
     149
 0.000005738 0.000012999 0.000008306
     150
 0.000005706 0.000012983 0.000008205
     151
 0.000005680 0.000012882 0.000008161
     152
 0.000005735 0.000013217 0.000008212
     153
 0.000005760 0.000013395 0.000008228
     154
 0.000005752 0.000013413 0.000008213
     155
 0.000005712 0.000008173 0.000013280
     156
 0.000005643 0.000008123 0.000013014
     157
 0.000005549 0.000008075 0.000012637
     158
 0.000005439 0.000008041 0.000012177
     159
 0.000005317 0.000008031 0.000011661
     160
 0.000005189 0.000008047 0.000011113
     161
 0.000005058 0.000008084 0.000010555
     162
 0.000004925 0.000008133 0.000009999
     163
 0.000004790 0.000008175 0.000009453
     164
 0.000004648 0.000008189 0.000008920
     165
 0.000004496 0.000008153 0.000008397
     166
 0.000004328 0.000008045 0.000007881
     167
 0.000004140 0.000007847 0.000007365
     168
 0.000003927 0.000007550 0.000006846
     169
 0.000003689 0.000007150 0.000006325
     170
 0.000003426 0.000006655 0.000005804
     171
 0.000003141 0.000006079 0.000005290
     172
 0.000002839 0.000005446 0.000004794
     173
 0.000002529 0.000004782 0.000004328
     174
 0.000002219 0.000004118 0.000003905
     175
 0.000001917 0.000003482 0.000003535
     176
 0.000001633 0.000002898 0.000003226
     177
 0.000001372 0.000002386 0.000002980
     178
 0.000001140 0.000001956 0.000002795
     179
 0.000000940 0.000001610 0.000002661
     180
 0.000000772 0.000001345 0.000002567
     181
 0.000000633 0.000001149 0.000002496
     182
 0.000000521 0.000001006 0.000002430
     183
 0.000000431 0.000000898 0.000002355
     184
 0.000000357 0.000000809 0.000002256
     185
 0.000000296 0.000000724 0.000002124
     186
 0.000000242 0.000000633 0.000001955
     187
 0.000000194 0.000000531 0.000001751
     188
 0.000000149 0.000000418 0.000001519
     189
 0.000000108 0.000000298 0.000001271
     190
 0.000000070 0.000000178 0.000001019
     191
 0.000000036 0.000000069 0.000000778
     192
 0.000000009-0.000000023 0.000000561
     193
-0.000000011-0.000000090 0.000000376
     194
-0.000000023-0.000000129 0.000000230
     195
-0.000000028-0.000000140 0.000000125
     196
-0.000000027-0.000000129 0.000000056
     197
-0.000000022-0.000000101 0.000000018
     198
-0.000000014-0.000000065 0.000000001
     199
-0.000000007-0.000000032-0.000000003
     200
-0.000000002-0.000000008-0.000000001
     201
 0.000000000-0.000000000 0.000000000
     202
-0.000000004-0.000000009 0.000000001
     203
-0.000000017-0.000000035 0.000000006
     204
-0.000000033-0.000000071 0.000000019
     205
-0.000000050-0.000000106 0.000000047
     206
-0.000000060-0.000000129 0.000000095
     207
-0.000000058-0.000000130 0.000000169
     208
-0.000000040-0.000000100 0.000000271
     209
-0.000000003-0.000000037 0.000000402
     210
 0.000000053 0.000000061 0.000000557
     211
 0.000000125 0.000000188 0.000000730
     212
 0.000000209 0.000000336 0.000000912
     213
 0.000000300 0.000000494 0.000001096
     214
 0.000000392 0.000000654 0.000001275
     215
 0.000000479 0.000000808 0.000001445
     216
 0.000000559 0.000000952 0.000001605
     217
 0.000000631 0.000001085 0.000001758
     218
 0.000000695 0.000001212 0.000001908
     219
 0.000000756 0.000001341 0.000002061
     220
 0.000000819 0.000001480 0.000002222
     221
 0.000000889 0.000001637 0.000002394
     222
 0.000000971 0.000001818 0.000002580
     223
 0.000001068 0.000002025 0.000002777
     224
 0.000001183 0.000002256 0.000002980
     225
 0.000001314 0.000002504 0.000003185
     226
 0.000001460 0.000002761 0.000003387
     227
 0.000001618 0.000003017 0.000003583
     228
 0.000001788 0.000003262 0.000003773
     229
 0.000001966 0.000003493 0.000003964
     230
 0.000002155 0.000003707 0.000004165
     231
 0.000002356 0.000003909 0.000004392
     232
 0.000002573 0.000004108 0.000004660
     233
 0.000002809 0.000004317 0.000004982
     234
 0.000003068 0.000004548 0.000005368
     235
 0.000003351 0.000004811 0.000005822
     236
 0.000003654 0.000005112 0.000006337
     237
 0.000003971 0.000005452 0.000006896
     238
 0.000004292 0.000005822 0.000007475
     239
 0.000004603 0.000006208 0.000008043
     240
 0.000004891 0.000006589 0.000008563
     241
 0.000005149 0.000006944 0.000008996
     242
 0.000005376 0.000007252 0.000009303
     243
 0.000005578 0.000007497 0.000009454
     244
 0.000005757 0.000007669 0.000009437
     245
 0.000005906 0.000007770 0.000009274
     246
 0.000006008 0.000007808 0.000009013
     247
 0.000006056 0.000007802 0.000008707
     248
 0.000006061 0.000007773 0.000008398
     249
 0.000006045 0.000007748 0.000008122
     250
 0.000006029 0.000007747 0.000007908
     251
 0.000006025 0.000007787 0.000007787
     252
 0.000006037 0.000007721 0.000007848
     253
 0.000006074 0.000007650 0.000007903
     254
 0.000006135 0.000007575 0.000007951
     255
 0.000006217 0.000007498 0.000007990
     256
 0.000006319 0.000007418 0.000008021
     257
 0.000006437 0.000007337 0.000008042
     258
 0.000006569 0.000007254 0.000008052
     259
 0.000006710 0.000007170 0.000008053
     260
 0.000006857 0.000007086 0.000008042
     261
 0.000007006 0.000007001 0.000008021
     262
 0.000007152 0.000006915 0.000007990
     263
 0.000007292 0.000006828 0.000007949
     264
 0.000007423 0.000006742 0.000007900
     265
 0.000007540 0.000006655 0.000007843
     266
 0.000007641 0.000006567 0.000007781
     267
 0.000007723 0.000006480 0.000007715
     268
 0.000007786 0.000006393 0.000007648
     269
 0.000007827 0.000006307 0.000007580
     270
 0.000007846 0.000006221 0.000007515
     271
 0.000007843 0.000006138 0.000007455
     272
 0.000007819 0.000006057 0.000007403
     273
 0.000007775 0.000005979 0.000007360
     274
 0.000007712 0.000005905 0.000007329
     275
 0.000007633 0.000005836 0.000007311
     276
 0.000007540 0.000005773 0.000007309
     277
 0.000007436 0.000005717 0.000007323
     278
 0.000007323 0.000005668 0.000007355
     279
 0.000007205 0.000005626 0.000007405
     280
 0.000007085 0.000005594 0.000007475
     281
 0.000006965 0.000005570 0.000007562
     282
 0.000006848 0.000005556 0.000007668
     283
 0.000006736 0.000005551 0.000007790
     284
 0.000006630 0.000005556 0.000007927
     285
 0.000006534 0.000005569 0.000008079
     286
 0.000006447 0.000005590 0.000008241
     287
 0.000006372 0.000005619 0.000008413
     288
 0.000006307 0.000005655 0.000008591
     289
 0.000006253 0.000005696 0.000008773
     290
 0.000006209 0.000005741 0.000008954
     291
 0.000006175 0.000005789 0.000009133
     292
 0.000006151 0.000005838 0.000009307
     293
 0.000006133 0.000005888 0.000009471
     294
 0.000006123 0.000005935 0.000009624
     295
 0.000006117 0.000005980 0.000009763
     296
 0.000006115 0.000006020 0.000009885
     297
 0.000006115 0.000006055 0.000009987
     298
 0.000006117 0.000006083 0.000010069
     299
 0.000006118 0.000006103 0.000010129
     300
 0.000006120 0.000006116 0.000010165
     301
 0.000006120 0.000006120 0.000010177
     302
 0.000006118 0.000006120 0.000010171
     303
 0.000006110 0.000006121 0.000010153
     304
 0.000006097 0.000006122 0.000010123
     305
 0.000006079 0.000006125 0.000010081
     306
 0.000006057 0.000006128 0.000010029
     307
 0.000006030 0.000006133 0.000009966
     308
 0.000005999 0.000006141 0.000009893
     309
 0.000005964 0.000006151 0.000009811
     310
 0.000005926 0.000006164 0.000009721
     311
 0.000005884 0.000006182 0.000009623
     312
 0.000005841 0.000006205 0.000009520
     313
 0.000005795 0.000006234 0.000009411
     314
 0.000005748 0.000006269 0.000009299
     315
 0.000005700 0.000006311 0.000009184
     316
 0.000005652 0.000006362 0.000009067
     317
 0.000005604 0.000006421 0.000008949
     318
 0.000005557 0.000006490 0.000008833
     319
 0.000005510 0.000006569 0.000008718
     320
 0.000005466 0.000006659 0.000008606
     321
 0.000005424 0.000006760 0.000008498
     322
 0.000005384 0.000006872 0.000008395
     323
 0.000005348 0.000006997 0.000008297
     324
 0.000005315 0.000007133 0.000008206
     325
 0.000005286 0.000007282 0.000008122
     326
 0.000005260 0.000007443 0.000008045
     327
 0.000005239 0.000007616 0.000007977
     328
 0.000005222 0.000007800 0.000007917
     329
 0.000005210 0.000007995 0.000007865
     330
 0.000005203 0.000008200 0.000007822
     331
 0.000005199 0.000008416 0.000007788
     332
 0.000005201 0.000008640 0.000007762
     333
 0.000005206 0.000008871 0.000007744
     334
 0.000005216 0.000009110 0.000007735
     335
 0.000005229 0.000009354 0.000007733
     336
 0.000005247 0.000009603 0.000007737
     337
 0.000005267 0.000009854 0.000007748
     338
 0.000005291 0.000010107 0.000007765
     339
 0.000005317 0.000010360 0.000007787
     340
 0.000005346 0.000010612 0.000007813
     341
 0.000005376 0.000010861 0.000007842
     342
 0.000005408 0.000011106 0.000007874
     343
 0.000005440 0.000011344 0.000007908
     344
 0.000005473 0.000011576 0.000007943
     345
 0.000005506 0.000011798 0.000007979
     346
 0.000005539 0.000012011 0.000008014
     347
 0.000005570 0.000012212 0.000008047
     348
 0.000005600 0.000012401 0.000008080
     349
 0.000005629 0.000012576 0.000008110
     350
 0.000005656 0.000012737 0.000008137
     351
 0.000005680 0.000012882 0.000008161
     352
 0.000005674 0.000012652 0.000008205
     353
 0.000005699 0.000012291 0.000008327
     354
 0.000005746 0.000011863 0.000008455
     355
 0.000005798 0.000011406 0.000008544
     356
 0.000005841 0.000010934 0.000008566
     357
 0.000005857 0.000010452 0.000008509
     358
 0.000005833 0.000009953 0.000008375
     359
 0.000005762 0.000009427 0.000008176
     360
 0.000005640 0.000008863 0.000007933
     361
 0.000005473 0.000008256 0.000007667
     362
 0.000005269 0.000007612 0.000007398
     363
 0.000005040 0.000006942 0.000007138
     364
 0.000004801 0.000006267 0.000006893
     365
 0.000004564 0.000005610 0.000006661
     366
 0.000004339 0.000004993 0.000006438
     367
 0.000004133 0.000004432 0.000006215
     368
 0.000003947 0.000003936 0.000005986
     369
 0.000003780 0.000003505 0.000005745
     370
 0.000003626 0.000003134 0.000005486
     371
 0.000003479 0.000002814 0.000005207
     372
 0.000003332 0.000002534 0.000004906
     373
 0.000003181 0.000002286 0.000004585
     374
 0.000003022 0.000002064 0.000004246
     375
 0.000002856 0.000001864 0.000003894
     376
 0.000002684 0.000001684 0.000003537
     377
 0.000002511 0.000001524 0.000003184
     378
 0.000002339 0.000001385 0.000002843
     379
 0.000002172 0.000001265 0.000002525
     380
 0.000002011 0.000001162 0.000002236
     381
 0.000001857 0.000001072 0.000001981
     382
 0.000001707 0.000000990 0.000001760
     383
 0.000001556 0.000000911 0.000001571
     384
 0.000001402 0.000000828 0.000001409
     385
 0.000001241 0.000000738 0.000001267
     386
 0.000001071 0.000000639 0.000001138
     387
 0.000000893 0.000000530 0.000001015
     388
 0.000000711 0.000000416 0.000000893
     389
 0.000000530 0.000000300 0.000000771
     390
 0.000000359 0.000000190 0.000000649
     391
 0.000000207 0.000000091 0.000000529
     392
 0.000000081 0.000000010 0.000000416
     393
-0.000000014-0.000000049 0.000000312
     394
-0.000000075-0.000000085 0.000000223
     395
-0.000000104-0.000000098 0.000000150
     396
-0.000000105-0.000000092 0.000000094
     397
-0.000000087-0.000000073 0.000000053
     398
-0.000000048-0.000000058 0.000000027
     399
-0.000000024-0.000000029 0.000000011
     400
-0.000000006-0.000000008 0.000000002
     401
 0.000000000-0.000000000 0.000000000
Norm of the difference between old and new effective charges:    0.00000000000000000000
Norm of the difference between old and new force-constants:   0.00000269214228328427
 Broadening   0.0200
       1
 0.000005963 0.000005963 0.000009600
       2
 0.000005948 0.000005948 0.000009583
       3
 0.000005905 0.000005905 0.000009531
       4
 0.000005835 0.000005835 0.000009444
       5
 0.000005742 0.000005742 0.000009320
       6
 0.000005630 0.000005630 0.000009157
       7
 0.000005506 0.000005506 0.000008957
       8
 0.000005373 0.000005373 0.000008720
       9
 0.000005240 0.000005240 0.000008448
      10
 0.000005109 0.000005109 0.000008146
      11
 0.000004985 0.000004985 0.000007819
      12
 0.000004871 0.000004871 0.000007472
      13
 0.000004765 0.000004765 0.000007109
      14
 0.000004666 0.000004666 0.000006737
      15
 0.000004569 0.000004569 0.000006357
      16
 0.000004469 0.000004469 0.000005972
      17
 0.000004359 0.000004359 0.000005580
      18
 0.000004234 0.000004234 0.000005182
      19
 0.000004088 0.000004088 0.000004776
      20
 0.000003920 0.000003920 0.000004362
      21
 0.000003729 0.000003729 0.000003940
      22
 0.000003518 0.000003518 0.000003514
      23
 0.000003291 0.000003291 0.000003089
      24
 0.000003055 0.000003055 0.000002671
      25
 0.000002817 0.000002817 0.000002270
      26
 0.000002585 0.000002585 0.000001895
      27
 0.000002363 0.000002363 0.000001554
      28
 0.000002156 0.000002156 0.000001254
      29
 0.000001966 0.000001966 0.000001001
      30
 0.000001790 0.000001790 0.000000797
      31
 0.000001626 0.000001626 0.000000640
      32
 0.000001470 0.000001470 0.000000527
      33
 0.000001318 0.000001318 0.000000451
      34
 0.000001164 0.000001164 0.000000405
      35
 0.000001008 0.000001008 0.000000378
      36
 0.000000848 0.000000848 0.000000364
      37
 0.000000686 0.000000686 0.000000355
      38
 0.000000527 0.000000527 0.000000344
      39
 0.000000376 0.000000376 0.000000328
      40
 0.000000238 0.000000238 0.000000305
      41
 0.000000121 0.000000121 0.000000276
      42
 0.000000028 0.000000028 0.000000240
      43
-0.000000038-0.000000038 0.000000201
      44
-0.000000078-0.000000078 0.000000161
      45
-0.000000092-0.000000092 0.000000122
      46
-0.000000088-0.000000088 0.000000087
      47
-0.000000070-0.000000070 0.000000056
      48
-0.000000046-0.000000046 0.000000032
      49
-0.000000022-0.000000022 0.000000014
      50
-0.000000006-0.000000006 0.000000004
      51
-0.000000000-0.000000000-0.000000000
      52
-0.000000002-0.000000002-0.000000002
      53
-0.000000007-0.000000007-0.000000009
      54
-0.000000015-0.000000015-0.000000017
      55
-0.000000022-0.000000022-0.000000023
      56
-0.000000028-0.000000028-0.000000021
      57
-0.000000028-0.000000028-0.000000007
      58
-0.000000021-0.000000021 0.000000024
      59
-0.000000003-0.000000003 0.000000078
      60
 0.000000028 0.000000028 0.000000158
      61
 0.000000073 0.000000073 0.000000265
      62
 0.000000134 0.000000134 0.000000400
      63
 0.000000212 0.000000212 0.000000561
      64
 0.000000305 0.000000305 0.000000745
      65
 0.000000413 0.000000413 0.000000948
      66
 0.000000534 0.000000534 0.000001164
      67
 0.000000666 0.000000666 0.000001389
      68
 0.000000806 0.000000806 0.000001616
      69
 0.000000952 0.000000952 0.000001842
      70
 0.000001102 0.000001102 0.000002063
      71
 0.000001253 0.000001253 0.000002278
      72
 0.000001403 0.000001403 0.000002487
      73
 0.000001550 0.000001550 0.000002690
      74
 0.000001693 0.000001693 0.000002892
      75
 0.000001832 0.000001832 0.000003094
      76
 0.000001965 0.000001965 0.000003302
      77
 0.000002091 0.000002091 0.000003519
      78
 0.000002212 0.000002212 0.000003748
      79
 0.000002326 0.000002326 0.000003991
      80
 0.000002434 0.000002434 0.000004249
      81
 0.000002536 0.000002536 0.000004520
      82
 0.000002632 0.000002632 0.000004799
      83
 0.000002722 0.000002722 0.000005083
      84
 0.000002805 0.000002805 0.000005363
      85
 0.000002882 0.000002882 0.000005632
      86
 0.000002954 0.000002954 0.000005881
      87
 0.000003018 0.000003018 0.000006104
      88
 0.000003077 0.000003077 0.000006292
      89
 0.000003130 0.000003130 0.000006440
      90
 0.000003177 0.000003177 0.000006546
      91
 0.000003218 0.000003218 0.000006608
      92
 0.000003254 0.000003254 0.000006629
      93
 0.000003285 0.000003285 0.000006613
      94
 0.000003311 0.000003311 0.000006567
      95
 0.000003333 0.000003333 0.000006498
      96
 0.000003351 0.000003351 0.000006417
      97
 0.000003365 0.000003365 0.000006333
      98
 0.000003376 0.000003376 0.000006257
      99
 0.000003384 0.000003384 0.000006196
     100
 0.000003388 0.000003388 0.000006156
     101
 0.000003390 0.000003390 0.000006143
     102
 0.000003390 0.000003394 0.000006150
     103
 0.000003390 0.000003408 0.000006173
     104
 0.000003391 0.000003431 0.000006210
     105
 0.000003392 0.000003462 0.000006262
     106
 0.000003394 0.000003502 0.000006326
     107
 0.000003398 0.000003550 0.000006403
     108
 0.000003403 0.000003606 0.000006490
     109
 0.000003411 0.000003670 0.000006587
     110
 0.000003421 0.000003742 0.000006691
     111
 0.000003436 0.000003822 0.000006802
     112
 0.000003455 0.000003911 0.000006918
     113
 0.000003479 0.000004008 0.000007038
     114
 0.000003510 0.000004113 0.000007159
     115
 0.000003548 0.000004229 0.000007282
     116
 0.000003594 0.000004355 0.000007404
     117
 0.000003648 0.000004493 0.000007526
     118
 0.000003712 0.000004642 0.000007646
     119
 0.000003785 0.000004805 0.000007763
     120
 0.000003868 0.000004981 0.000007878
     121
 0.000003960 0.000005172 0.000007990
     122
 0.000004062 0.000005376 0.000008100
     123
 0.000004173 0.000005596 0.000008207
     124
 0.000004291 0.000005829 0.000008311
     125
 0.000004417 0.000006075 0.000008413
     126
 0.000004547 0.000006334 0.000008513
     127
 0.000004681 0.000006603 0.000008611
     128
 0.000004817 0.000006881 0.000008707
     129
 0.000004953 0.000007166 0.000008802
     130
 0.000005086 0.000007454 0.000008894
     131
 0.000005216 0.000007745 0.000008984
     132
 0.000005340 0.000008034 0.000009072
     133
 0.000005456 0.000008320 0.000009155
     134
 0.000005563 0.000008601 0.000009235
     135
 0.000005659 0.000008873 0.000009308
     136
 0.000005744 0.000009136 0.000009373
     137
 0.000005818 0.000009390 0.000009428
     138
 0.000005879 0.000009633 0.000009471
     139
 0.000005928 0.000009868 0.000009496
     140
 0.000005965 0.000010096 0.000009501
     141
 0.000005992 0.000010321 0.000009481
     142
 0.000006010 0.000010545 0.000009430
     143
 0.000006019 0.000010773 0.000009345
     144
 0.000006022 0.000011004 0.000009225
     145
 0.000006019 0.000011235 0.000009074
     146
 0.000006013 0.000011452 0.000008904
     147
 0.000006004 0.000011635 0.000008737
     148
 0.000005994 0.000011761 0.000008597
     149
 0.000005984 0.000011816 0.000008498
     150
 0.000005975 0.000011801 0.000008440
     151
 0.000005967 0.000011725 0.000008414
     152
 0.000005978 0.000011968 0.000008440
     153
 0.000005965 0.000012085 0.000008428
     154
 0.000005926 0.000012076 0.000008382
     155
 0.000005861 0.000008307 0.000011949
     156
 0.000005774 0.000008215 0.000011718
     157
 0.000005667 0.000008116 0.000011402
     158
 0.000005544 0.000008022 0.000011020
     159
 0.000005409 0.000007940 0.000010594
     160
 0.000005264 0.000007873 0.000010141
     161
 0.000005112 0.000007820 0.000009675
     162
 0.000004952 0.000007773 0.000009206
     163
 0.000004783 0.000007719 0.000008738
     164
 0.000004604 0.000007644 0.000008273
     165
 0.000004413 0.000007530 0.000007808
     166
 0.000004206 0.000007361 0.000007340
     167
 0.000003981 0.000007125 0.000006868
     168
 0.000003738 0.000006814 0.000006389
     169
 0.000003478 0.000006426 0.000005906
     170
 0.000003202 0.000005968 0.000005425
     171
 0.000002915 0.000005452 0.000004953
     172
 0.000002621 0.000004895 0.000004502
     173
 0.000002328 0.000004318 0.000004082
     174
 0.000002041 0.000003746 0.000003705
     175
 0.000001767 0.000003200 0.000003379
     176
 0.000001513 0.000002699 0.000003110
     177
 0.000001283 0.000002257 0.000002898
     178
 0.000001079 0.000001882 0.000002739
     179
 0.000000904 0.000001576 0.000002623
     180
 0.000000756 0.000001336 0.000002538
     181
 0.000000633 0.000001151 0.000002469
     182
 0.000000532 0.000001010 0.000002399
     183
 0.000000449 0.000000897 0.000002315
     184
 0.000000380 0.000000801 0.000002204
     185
 0.000000322 0.000000710 0.000002061
     186
 0.000000270 0.000000615 0.000001883
     187
 0.000000223 0.000000513 0.000001673
     188
 0.000000179 0.000000405 0.000001438
     189
 0.000000139 0.000000293 0.000001191
     190
 0.000000102 0.000000185 0.000000945
     191
 0.000000069 0.000000086 0.000000712
     192
 0.000000042 0.000000004 0.000000504
     193
 0.000000020-0.000000056 0.000000331
     194
 0.000000005-0.000000093 0.000000196
     195
-0.000000004-0.000000106 0.000000100
     196
-0.000000008-0.000000099 0.000000039
     197
-0.000000009-0.000000078 0.000000007
     198
-0.000000006-0.000000051-0.000000005
     199
-0.000000003-0.000000025-0.000000005
     200
-0.000000001-0.000000007-0.000000002
     201
-0.000000000-0.000000000-0.000000000
     202
-0.000000003-0.000000007 0.000000000
     203
-0.000000012-0.000000028 0.000000002
     204
-0.000000023-0.000000055 0.000000011
     205
-0.000000033-0.000000082 0.000000031
     206
-0.000000037-0.000000099 0.000000071
     207
-0.000000031-0.000000097 0.000000134
     208
-0.000000011-0.000000069 0.000000226
     209
 0.000000025-0.000000011 0.000000346
     210
 0.000000078 0.000000075 0.000000492
     211
 0.000000146 0.000000188 0.000000659
     212
 0.000000226 0.000000321 0.000000837
     213
 0.000000314 0.000000465 0.000001021
     214
 0.000000405 0.000000613 0.000001202
     215
 0.000000494 0.000000759 0.000001375
     216
 0.000000578 0.000000900 0.000001538
     217
 0.000000655 0.000001034 0.000001692
     218
 0.000000726 0.000001164 0.000001839
     219
 0.000000792 0.000001297 0.000001984
     220
 0.000000858 0.000001438 0.000002133
     221
 0.000000928 0.000001594 0.000002292
     222
 0.000001005 0.000001770 0.000002462
     223
 0.000001095 0.000001969 0.000002647
     224
 0.000001200 0.000002188 0.000002845
     225
 0.000001320 0.000002423 0.000003053
     226
 0.000001457 0.000002668 0.000003269
     227
 0.000001610 0.000002914 0.000003489
     228
 0.000001778 0.000003154 0.000003712
     229
 0.000001961 0.000003382 0.000003941
     230
 0.000002159 0.000003599 0.000004178
     231
 0.000002372 0.000003806 0.000004433
     232
 0.000002603 0.000004009 0.000004713
     233
 0.000002851 0.000004219 0.000005028
     234
 0.000003116 0.000004444 0.000005385
     235
 0.000003398 0.000004696 0.000005786
     236
 0.000003693 0.000004979 0.000006230
     237
 0.000003993 0.000005296 0.000006705
     238
 0.000004292 0.000005641 0.000007197
     239
 0.000004580 0.000006006 0.000007684
     240
 0.000004848 0.000006375 0.000008138
     241
 0.000005092 0.000006731 0.000008531
     242
 0.000005313 0.000007058 0.000008831
     243
 0.000005520 0.000007341 0.000009011
     244
 0.000005714 0.000007570 0.000009060
     245
 0.000005886 0.000007741 0.000008992
     246
 0.000006020 0.000007858 0.000008845
     247
 0.000006107 0.000007928 0.000008658
     248
 0.000006151 0.000007967 0.000008461
     249
 0.000006168 0.000007991 0.000008280
     250
 0.000006175 0.000008014 0.000008135
     251
 0.000006178 0.000008051 0.000008051
     252
 0.000006187 0.000008001 0.000008093
     253
 0.000006216 0.000007943 0.000008126
     254
 0.000006264 0.000007879 0.000008151
     255
 0.000006329 0.000007808 0.000008167
     256
 0.000006409 0.000007732 0.000008174
     257
 0.000006503 0.000007650 0.000008172
     258
 0.000006608 0.000007563 0.000008161
     259
 0.000006721 0.000007471 0.000008140
     260
 0.000006840 0.000007376 0.000008112
     261
 0.000006961 0.000007278 0.000008075
     262
 0.000007081 0.000007177 0.000008032
     263
 0.000007198 0.000007074 0.000007982
     264
 0.000007309 0.000006969 0.000007927
     265
 0.000007411 0.000006864 0.000007869
     266
 0.000007502 0.000006758 0.000007808
     267
 0.000007579 0.000006652 0.000007747
     268
 0.000007642 0.000006548 0.000007686
     269
 0.000007689 0.000006446 0.000007628
     270
 0.000007719 0.000006347 0.000007574
     271
 0.000007732 0.000006251 0.000007526
     272
 0.000007728 0.000006159 0.000007485
     273
 0.000007708 0.000006072 0.000007454
     274
 0.000007672 0.000005991 0.000007433
     275
 0.000007622 0.000005917 0.000007424
     276
 0.000007558 0.000005849 0.000007427
     277
 0.000007483 0.000005789 0.000007444
     278
 0.000007399 0.000005737 0.000007474
     279
 0.000007307 0.000005694 0.000007519
     280
 0.000007210 0.000005658 0.000007577
     281
 0.000007108 0.000005632 0.000007649
     282
 0.000007005 0.000005613 0.000007734
     283
 0.000006902 0.000005603 0.000007831
     284
 0.000006801 0.000005601 0.000007938
     285
 0.000006702 0.000005606 0.000008055
     286
 0.000006608 0.000005617 0.000008179
     287
 0.000006519 0.000005634 0.000008309
     288
 0.000006437 0.000005657 0.000008442
     289
 0.000006360 0.000005683 0.000008578
     290
 0.000006291 0.000005713 0.000008712
     291
 0.000006229 0.000005744 0.000008844
     292
 0.000006175 0.000005777 0.000008971
     293
 0.000006127 0.000005810 0.000009091
     294
 0.000006086 0.000005841 0.000009202
     295
 0.000006052 0.000005870 0.000009302
     296
 0.000006024 0.000005897 0.000009390
     297
 0.000006001 0.000005920 0.000009464
     298
 0.000005984 0.000005938 0.000009523
     299
 0.000005972 0.000005952 0.000009566
     300
 0.000005965 0.000005960 0.000009592
     301
 0.000005963 0.000005963 0.000009600
     302
 0.000005962 0.000005964 0.000009596
     303
 0.000005958 0.000005966 0.000009583
     304
 0.000005952 0.000005971 0.000009562
     305
 0.000005945 0.000005978 0.000009532
     306
 0.000005935 0.000005988 0.000009494
     307
 0.000005923 0.000006000 0.000009449
     308
 0.000005909 0.000006015 0.000009397
     309
 0.000005894 0.000006034 0.000009339
     310
 0.000005877 0.000006056 0.000009275
     311
 0.000005860 0.000006084 0.000009206
     312
 0.000005841 0.000006115 0.000009133
     313
 0.000005822 0.000006153 0.000009056
     314
 0.000005803 0.000006196 0.000008977
     315
 0.000005783 0.000006246 0.000008897
     316
 0.000005764 0.000006303 0.000008816
     317
 0.000005745 0.000006367 0.000008735
     318
 0.000005727 0.000006439 0.000008654
     319
 0.000005709 0.000006520 0.000008576
     320
 0.000005693 0.000006609 0.000008501
     321
 0.000005679 0.000006707 0.000008428
     322
 0.000005666 0.000006814 0.000008360
     323
 0.000005655 0.000006930 0.000008296
     324
 0.000005646 0.000007055 0.000008238
     325
 0.000005639 0.000007189 0.000008185
     326
 0.000005634 0.000007333 0.000008138
     327
 0.000005632 0.000007485 0.000008098
     328
 0.000005632 0.000007645 0.000008063
     329
 0.000005634 0.000007813 0.000008036
     330
 0.000005639 0.000007989 0.000008015
     331
 0.000005646 0.000008171 0.000008001
     332
 0.000005655 0.000008359 0.000007993
     333
 0.000005666 0.000008552 0.000007991
     334
 0.000005679 0.000008750 0.000007995
     335
 0.000005694 0.000008951 0.000008004
     336
 0.000005710 0.000009154 0.000008018
     337
 0.000005728 0.000009358 0.000008037
     338
 0.000005746 0.000009562 0.000008059
     339
 0.000005766 0.000009766 0.000008085
     340
 0.000005786 0.000009967 0.000008113
     341
 0.000005806 0.000010165 0.000008143
     342
 0.000005827 0.000010358 0.000008175
     343
 0.000005847 0.000010546 0.000008207
     344
 0.000005867 0.000010727 0.000008239
     345
 0.000005886 0.000010900 0.000008270
     346
 0.000005903 0.000011064 0.000008300
     347
 0.000005920 0.000011219 0.000008329
     348
 0.000005935 0.000011363 0.000008355
     349
 0.000005947 0.000011496 0.000008378
     350
 0.000005958 0.000011617 0.000008398
     351
 0.000005967 0.000011725 0.000008414
     352
 0.000005965 0.000011559 0.000008433
     353
 0.000005972 0.000011301 0.000008482
     354
 0.000005980 0.000010991 0.000008517
     355
 0.000005978 0.000010648 0.000008511
     356
 0.000005955 0.000010280 0.000008450
     357
 0.000005900 0.000009885 0.000008330
     358
 0.000005805 0.000009459 0.000008155
     359
 0.000005667 0.000008994 0.000007937
     360
 0.000005487 0.000008483 0.000007692
     361
 0.000005271 0.000007925 0.000007437
     362
 0.000005028 0.000007327 0.000007185
     363
 0.000004770 0.000006702 0.000006943
     364
 0.000004511 0.000006069 0.000006714
     365
 0.000004261 0.000005451 0.000006493
     366
 0.000004030 0.000004869 0.000006273
     367
 0.000003821 0.000004337 0.000006046
     368
 0.000003637 0.000003865 0.000005806
     369
 0.000003476 0.000003454 0.000005547
     370
 0.000003331 0.000003099 0.000005269
     371
 0.000003198 0.000002794 0.000004971
     372
 0.000003069 0.000002527 0.000004656
     373
 0.000002939 0.000002293 0.000004327
     374
 0.000002804 0.000002083 0.000003989
     375
 0.000002664 0.000001894 0.000003647
     376
 0.000002519 0.000001724 0.000003309
     377
 0.000002370 0.000001571 0.000002983
     378
 0.000002221 0.000001434 0.000002674
     379
 0.000002071 0.000001313 0.000002389
     380
 0.000001924 0.000001205 0.000002131
     381
 0.000001779 0.000001106 0.000001903
     382
 0.000001633 0.000001012 0.000001702
     383
 0.000001485 0.000000920 0.000001526
     384
 0.000001333 0.000000826 0.000001369
     385
 0.000001174 0.000000728 0.000001227
     386
 0.000001009 0.000000623 0.000001092
     387
 0.000000839 0.000000514 0.000000962
     388
 0.000000668 0.000000403 0.000000834
     389
 0.000000501 0.000000294 0.000000706
     390
 0.000000345 0.000000192 0.000000582
     391
 0.000000208 0.000000103 0.000000464
     392
 0.000000095 0.000000030 0.000000355
     393
 0.000000009-0.000000023 0.000000259
     394
-0.000000046-0.000000056 0.000000178
     395
-0.000000074-0.000000070 0.000000115
     396
-0.000000079-0.000000068 0.000000069
     397
-0.000000066-0.000000055 0.000000037
     398
-0.000000036-0.000000045 0.000000017
     399
-0.000000018-0.000000022 0.000000007
     400
-0.000000005-0.000000006 0.000000001
     401
-0.000000000-0.000000000-0.000000000
Norm of the difference between old and new effective charges:    0.00000000000000000000
Norm of the difference between old and new force-constants:   0.00000615663936082346
 Broadening   0.0250
       1
 0.000006098 0.000006098 0.000009306
       2
 0.000006084 0.000006084 0.000009295
       3
 0.000006045 0.000006045 0.000009260
       4
 0.000005981 0.000005981 0.000009199
       5
 0.000005894 0.000005894 0.000009111
       6
 0.000005787 0.000005787 0.000008992
       7
 0.000005664 0.000005664 0.000008840
       8
 0.000005530 0.000005530 0.000008652
       9
 0.000005387 0.000005387 0.000008430
      10
 0.000005242 0.000005242 0.000008173
      11
 0.000005096 0.000005096 0.000007885
      12
 0.000004954 0.000004954 0.000007567
      13
 0.000004816 0.000004816 0.000007225
      14
 0.000004681 0.000004681 0.000006861
      15
 0.000004549 0.000004549 0.000006481
      16
 0.000004416 0.000004416 0.000006087
      17
 0.000004279 0.000004279 0.000005682
      18
 0.000004133 0.000004133 0.000005269
      19
 0.000003977 0.000003977 0.000004850
      20
 0.000003807 0.000003807 0.000004426
      21
 0.000003623 0.000003623 0.000004002
      22
 0.000003426 0.000003426 0.000003582
      23
 0.000003219 0.000003219 0.000003169
      24
 0.000003006 0.000003006 0.000002771
      25
 0.000002792 0.000002792 0.000002394
      26
 0.000002581 0.000002581 0.000002043
      27
 0.000002376 0.000002376 0.000001724
      28
 0.000002181 0.000002181 0.000001441
      29
 0.000001996 0.000001996 0.000001198
      30
 0.000001821 0.000001821 0.000000994
      31
 0.000001654 0.000001654 0.000000829
      32
 0.000001491 0.000001491 0.000000699
      33
 0.000001332 0.000001332 0.000000600
      34
 0.000001172 0.000001172 0.000000525
      35
 0.000001012 0.000001012 0.000000469
      36
 0.000000851 0.000000851 0.000000425
      37
 0.000000692 0.000000692 0.000000390
      38
 0.000000539 0.000000539 0.000000358
      39
 0.000000395 0.000000395 0.000000326
      40
 0.000000266 0.000000266 0.000000293
      41
 0.000000156 0.000000156 0.000000258
      42
 0.000000068 0.000000068 0.000000222
      43
 0.000000004 0.000000004 0.000000184
      44
-0.000000036-0.000000036 0.000000147
      45
-0.000000055-0.000000055 0.000000112
      46
-0.000000058-0.000000058 0.000000080
      47
-0.000000048-0.000000048 0.000000053
      48
-0.000000032-0.000000032 0.000000030
      49
-0.000000016-0.000000016 0.000000014
      50
-0.000000004-0.000000004 0.000000003
      51
-0.000000000-0.000000000-0.000000000
      52
-0.000000001-0.000000001-0.000000002
      53
-0.000000004-0.000000004-0.000000007
      54
-0.000000007-0.000000007-0.000000013
      55
-0.000000009-0.000000009-0.000000016
      56
-0.000000009-0.000000009-0.000000012
      57
-0.000000005-0.000000005 0.000000004
      58
 0.000000007 0.000000007 0.000000037
      59
 0.000000027 0.000000027 0.000000090
      60
 0.000000059 0.000000059 0.000000167
      61
 0.000000102 0.000000102 0.000000269
      62
 0.000000159 0.000000159 0.000000398
      63
 0.000000229 0.000000229 0.000000552
      64
 0.000000312 0.000000312 0.000000728
      65
 0.000000409 0.000000409 0.000000923
      66
 0.000000517 0.000000517 0.000001132
      67
 0.000000636 0.000000636 0.000001350
      68
 0.000000763 0.000000763 0.000001574
      69
 0.000000898 0.000000898 0.000001798
      70
 0.000001038 0.000001038 0.000002020
      71
 0.000001182 0.000001182 0.000002238
      72
 0.000001328 0.000001328 0.000002451
      73
 0.000001475 0.000001475 0.000002660
      74
 0.000001621 0.000001621 0.000002867
      75
 0.000001766 0.000001766 0.000003074
      76
 0.000001907 0.000001907 0.000003285
      77
[...]
     379
 0.000002098 0.000001733 0.000002607
     380
 0.000001959 0.000001580 0.000002348
     381
 0.000001816 0.000001436 0.000002109
     382
 0.000001668 0.000001298 0.000001888
     383
 0.000001517 0.000001167 0.000001684
     384
 0.000001362 0.000001041 0.000001495
     385
 0.000001207 0.000000919 0.000001320
     386
 0.000001053 0.000000802 0.000001156
     387
 0.000000901 0.000000690 0.000001004
     388
 0.000000756 0.000000583 0.000000861
     389
 0.000000620 0.000000484 0.000000729
     390
 0.000000495 0.000000392 0.000000606
     391
 0.000000383 0.000000309 0.000000494
     392
 0.000000287 0.000000237 0.000000394
     393
 0.000000207 0.000000176 0.000000305
     394
 0.000000142 0.000000125 0.000000228
     395
 0.000000093 0.000000085 0.000000164
     396
 0.000000057 0.000000054 0.000000111
     397
 0.000000032 0.000000032 0.000000069
     398
 0.000000017 0.000000016 0.000000038
     399
 0.000000007 0.000000006 0.000000017
     400
 0.000000002 0.000000001 0.000000004
     401
-0.000000000-0.000000000-0.000000000
Norm of the difference between old and new effective charges:    0.00000000000000000000
Norm of the difference between old and new force-constants:   0.00004647064773426177
 Broadening   0.0500
       1
 0.000006869 0.000006869 0.000009531
       2
 0.000006857 0.000006857 0.000009523
       3
 0.000006821 0.000006821 0.000009501
       4
 0.000006761 0.000006761 0.000009463
       5
 0.000006679 0.000006679 0.000009406
       6
 0.000006574 0.000006574 0.000009328
       7
 0.000006448 0.000006448 0.000009226
       8
 0.000006303 0.000006303 0.000009095
       9
 0.000006140 0.000006140 0.000008934
      10
 0.000005961 0.000005961 0.000008741
      11
 0.000005768 0.000005768 0.000008514
      12
 0.000005565 0.000005565 0.000008252
      13
 0.000005353 0.000005353 0.000007957
      14
 0.000005134 0.000005134 0.000007630
      15
 0.000004912 0.000004912 0.000007275
      16
 0.000004687 0.000004687 0.000006894
      17
 0.000004461 0.000004461 0.000006492
      18
 0.000004237 0.000004237 0.000006075
      19
 0.000004015 0.000004015 0.000005647
      20
 0.000003797 0.000003797 0.000005215
      21
 0.000003583 0.000003583 0.000004783
      22
 0.000003374 0.000003374 0.000004357
      23
 0.000003170 0.000003170 0.000003943
      24
 0.000002971 0.000002971 0.000003546
      25
 0.000002779 0.000002779 0.000003168
      26
 0.000002591 0.000002591 0.000002814
      27
 0.000002409 0.000002409 0.000002486
      28
 0.000002232 0.000002232 0.000002186
      29
 0.000002059 0.000002059 0.000001915
      30
 0.000001890 0.000001890 0.000001672
      31
 0.000001724 0.000001724 0.000001457
      32
 0.000001562 0.000001562 0.000001269
      33
 0.000001402 0.000001402 0.000001104
      34
 0.000001247 0.000001247 0.000000962
      35
 0.000001095 0.000001095 0.000000839
      36
 0.000000949 0.000000949 0.000000732
      37
 0.000000810 0.000000810 0.000000638
      38
 0.000000680 0.000000680 0.000000555
      39
 0.000000559 0.000000559 0.000000481
      40
 0.000000450 0.000000450 0.000000414
      41
 0.000000353 0.000000353 0.000000352
      42
 0.000000269 0.000000269 0.000000294
      43
 0.000000199 0.000000199 0.000000240
      44
 0.000000141 0.000000141 0.000000190
      45
 0.000000096 0.000000096 0.000000144
      46
 0.000000062 0.000000062 0.000000103
      47
 0.000000037 0.000000037 0.000000067
      48
 0.000000019 0.000000019 0.000000039
      49
 0.000000008 0.000000008 0.000000017
      50
 0.000000002 0.000000002 0.000000004
      51
-0.000000000-0.000000000-0.000000000
      52
 0.000000002 0.000000002 0.000000003
      53
 0.000000007 0.000000007 0.000000012
      54
 0.000000015 0.000000015 0.000000028
      55
 0.000000028 0.000000028 0.000000051
      56
 0.000000045 0.000000045 0.000000084
      57
 0.000000067 0.000000067 0.000000128
      58
 0.000000095 0.000000095 0.000000183
      59
 0.000000128 0.000000128 0.000000253
      60
 0.000000168 0.000000168 0.000000337
      61
 0.000000216 0.000000216 0.000000436
      62
 0.000000271 0.000000271 0.000000551
      63
 0.000000334 0.000000334 0.000000682
      64
 0.000000406 0.000000406 0.000000828
      65
 0.000000486 0.000000486 0.000000988
      66
 0.000000575 0.000000575 0.000001161
      67
 0.000000673 0.000000673 0.000001345
      68
 0.000000779 0.000000779 0.000001539
      69
 0.000000894 0.000000894 0.000001741
      70
 0.000001017 0.000001017 0.000001950
      71
 0.000001148 0.000001148 0.000002163
      72
 0.000001286 0.000001286 0.000002381
      73
 0.000001429 0.000001429 0.000002601
      74
 0.000001576 0.000001576 0.000002822
      75
 0.000001726 0.000001726 0.000003044
      76
 0.000001876 0.000001876 0.000003265
      77
 0.000002026 0.000002026 0.000003486
      78
 0.000002173 0.000002173 0.000003705
      79
 0.000002316 0.000002316 0.000003922
      80
 0.000002452 0.000002452 0.000004137
      81
 0.000002581 0.000002581 0.000004348
      82
 0.000002702 0.000002702 0.000004555
      83
 0.000002814 0.000002814 0.000004759
      84
 0.000002917 0.000002917 0.000004958
      85
 0.000003012 0.000003012 0.000005152
      86
 0.000003100 0.000003100 0.000005340
      87
 0.000003181 0.000003181 0.000005523
      88
 0.000003257 0.000003257 0.000005700
      89
 0.000003329 0.000003329 0.000005870
      90
 0.000003397 0.000003397 0.000006032
      91
 0.000003464 0.000003464 0.000006187
      92
 0.000003527 0.000003527 0.000006333
      93
 0.000003589 0.000003589 0.000006469
      94
 0.000003648 0.000003648 0.000006593
      95
 0.000003703 0.000003703 0.000006706
      96
 0.000003753 0.000003753 0.000006804
      97
 0.000003796 0.000003796 0.000006886
      98
 0.000003832 0.000003832 0.000006952
      99
 0.000003859 0.000003859 0.000007000
     100
 0.000003875 0.000003875 0.000007029
     101
 0.000003881 0.000003881 0.000007039
     102
 0.000003881 0.000003884 0.000007041
     103
 0.000003882 0.000003892 0.000007050
     104
 0.000003883 0.000003905 0.000007064
     105
 0.000003885 0.000003924 0.000007083
     106
 0.000003888 0.000003950 0.000007109
     107
 0.000003893 0.000003982 0.000007140
     108
 0.000003899 0.000004021 0.000007177
     109
 0.000003908 0.000004068 0.000007220
     110
 0.000003921 0.000004123 0.000007269
     111
 0.000003936 0.000004187 0.000007324
     112
 0.000003956 0.000004261 0.000007385
     113
 0.000003980 0.000004345 0.000007450
     114
 0.000004009 0.000004440 0.000007521
     115
 0.000004043 0.000004545 0.000007597
     116
 0.000004082 0.000004662 0.000007677
     117
 0.000004127 0.000004790 0.000007760
     118
 0.000004177 0.000004930 0.000007846
     119
 0.000004232 0.000005081 0.000007935
     120
 0.000004293 0.000005243 0.000008025
     121
 0.000004358 0.000005416 0.000008117
     122
 0.000004428 0.000005598 0.000008209
     123
 0.000004503 0.000005790 0.000008300
     124
 0.000004582 0.000005990 0.000008391
     125
 0.000004665 0.000006197 0.000008481
     126
 0.000004751 0.000006411 0.000008570
     127
 0.000004840 0.000006629 0.000008657
     128
 0.000004931 0.000006852 0.000008742
     129
 0.000005025 0.000007076 0.000008825
     130
 0.000005121 0.000007303 0.000008906
     131
 0.000005219 0.000007529 0.000008985
     132
 0.000005317 0.000007754 0.000009061
     133
 0.000005417 0.000007977 0.000009134
     134
 0.000005518 0.000008197 0.000009204
     135
 0.000005619 0.000008412 0.000009271
     136
 0.000005719 0.000008622 0.000009333
     137
 0.000005820 0.000008827 0.000009391
     138
 0.000005919 0.000009025 0.000009443
     139
 0.000006018 0.000009216 0.000009488
     140
 0.000006114 0.000009400 0.000009524
     141
 0.000006208 0.000009577 0.000009550
     142
 0.000006298 0.000009746 0.000009564
     143
 0.000006385 0.000009907 0.000009566
     144
 0.000006467 0.000010058 0.000009556
     145
 0.000006543 0.000010195 0.000009535
     146
 0.000006614 0.000010311 0.000009510
     147
 0.000006677 0.000010398 0.000009487
     148
 0.000006731 0.000010448 0.000009472
     149
 0.000006778 0.000010459 0.000009468
     150
 0.000006815 0.000010433 0.000009471
     151
 0.000006841 0.000010377 0.000009475
     152
 0.000006769 0.000010554 0.000009454
     153
 0.000006684 0.000010665 0.000009399
     154
 0.000006584 0.000010703 0.000009307
     155
 0.000006472 0.000009178 0.000010666
     156
 0.000006347 0.000009012 0.000010554
     157
 0.000006210 0.000008813 0.000010371
     158
 0.000006061 0.000008585 0.000010124
     159
 0.000005900 0.000008331 0.000009819
     160
 0.000005727 0.000008056 0.000009466
     161
 0.000005540 0.000007766 0.000009075
     162
 0.000005341 0.000007462 0.000008656
     163
 0.000005128 0.000007149 0.000008219
     164
 0.000004900 0.000006827 0.000007773
     165
 0.000004659 0.000006498 0.000007326
     166
 0.000004405 0.000006163 0.000006885
     167
 0.000004140 0.000005823 0.000006457
     168
 0.000003865 0.000005477 0.000006045
     169
 0.000003583 0.000005128 0.000005654
     170
 0.000003298 0.000004776 0.000005286
     171
 0.000003014 0.000004426 0.000004944
     172
 0.000002736 0.000004079 0.000004628
     173
 0.000002466 0.000003740 0.000004338
     174
 0.000002210 0.000003411 0.000004073
     175
 0.000001969 0.000003098 0.000003831
     176
 0.000001748 0.000002801 0.000003610
     177
 0.000001548 0.000002525 0.000003405
     178
 0.000001369 0.000002270 0.000003213
     179
 0.000001211 0.000002037 0.000003028
     180
 0.000001073 0.000001825 0.000002847
     181
 0.000000954 0.000001632 0.000002666
     182
 0.000000850 0.000001456 0.000002481
     183
 0.000000759 0.000001295 0.000002290
     184
 0.000000679 0.000001147 0.000002093
     185
 0.000000607 0.000001009 0.000001889
     186
 0.000000540 0.000000879 0.000001681
     187
 0.000000479 0.000000757 0.000001472
     188
 0.000000420 0.000000643 0.000001265
     189
 0.000000364 0.000000537 0.000001065
     190
 0.000000311 0.000000439 0.000000876
     191
 0.000000261 0.000000350 0.000000703
     192
 0.000000213 0.000000272 0.000000547
     193
 0.000000170 0.000000204 0.000000413
     194
 0.000000130 0.000000148 0.000000299
     195
 0.000000096 0.000000102 0.000000208
     196
 0.000000066 0.000000067 0.000000136
     197
 0.000000042 0.000000040 0.000000082
     198
 0.000000024 0.000000021 0.000000044
     199
 0.000000011 0.000000009 0.000000019
     200
 0.000000003 0.000000002 0.000000005
     201
-0.000000000-0.000000000-0.000000000
     202
 0.000000003 0.000000002 0.000000005
     203
 0.000000011 0.000000010 0.000000021
     204
 0.000000026 0.000000024 0.000000049
     205
 0.000000047 0.000000046 0.000000089
     206
 0.000000076 0.000000077 0.000000144
     207
 0.000000113 0.000000120 0.000000214
     208
 0.000000160 0.000000175 0.000000301
     209
 0.000000215 0.000000244 0.000000405
     210
 0.000000280 0.000000327 0.000000524
     211
 0.000000355 0.000000423 0.000000659
     212
 0.000000437 0.000000531 0.000000807
     213
 0.000000527 0.000000650 0.000000967
     214
 0.000000622 0.000000779 0.000001137
     215
 0.000000721 0.000000915 0.000001315
     216
 0.000000822 0.000001059 0.000001500
     217
 0.000000925 0.000001209 0.000001692
     218
 0.000001030 0.000001365 0.000001891
     219
 0.000001136 0.000001529 0.000002098
     220
 0.000001245 0.000001701 0.000002314
     221
 0.000001360 0.000001882 0.000002540
     222
 0.000001482 0.000002074 0.000002778
     223
 0.000001614 0.000002276 0.000003028
     224
 0.000001760 0.000002489 0.000003291
     225
 0.000001922 0.000002713 0.000003566
     226
 0.000002103 0.000002945 0.000003852
     227
 0.000002304 0.000003185 0.000004147
     228
 0.000002526 0.000003431 0.000004451
     229
 0.000002769 0.000003680 0.000004760
     230
 0.000003031 0.000003932 0.000005076
     231
 0.000003309 0.000004187 0.000005396
     232
 0.000003599 0.000004444 0.000005723
     233
 0.000003896 0.000004704 0.000006055
     234
 0.000004193 0.000004969 0.000006395
     235
 0.000004488 0.000005241 0.000006742
     236
 0.000004775 0.000005522 0.000007094
     237
 0.000005050 0.000005812 0.000007450
     238
 0.000005311 0.000006112 0.000007803
     239
 0.000005558 0.000006421 0.000008148
     240
 0.000005792 0.000006737 0.000008475
     241
 0.000006016 0.000007055 0.000008772
     242
 0.000006238 0.000007370 0.000009022
     243
 0.000006467 0.000007676 0.000009212
     244
 0.000006704 0.000007966 0.000009331
     245
 0.000006940 0.000008234 0.000009386
     246
 0.000007156 0.000008475 0.000009394
     247
 0.000007336 0.000008683 0.000009374
     248
 0.000007473 0.000008855 0.000009334
     249
 0.000007569 0.000008992 0.000009280
     250
 0.000007627 0.000009092 0.000009218
     251
 0.000007647 0.000009160 0.000009160
     252
 0.000007649 0.000009105 0.000009209
     253
 0.000007657 0.000009044 0.000009253
     254
 0.000007669 0.000008978 0.000009290
     255
 0.000007686 0.000008907 0.000009321
     256
 0.000007707 0.000008831 0.000009346
     257
 0.000007731 0.000008752 0.000009365
     258
 0.000007758 0.000008669 0.000009378
     259
 0.000007788 0.000008583 0.000009386
     260
 0.000007819 0.000008494 0.000009388
     261
 0.000007851 0.000008404 0.000009386
     262
 0.000007884 0.000008312 0.000009378
     263
 0.000007915 0.000008220 0.000009367
     264
 0.000007945 0.000008127 0.000009352
     265
 0.000007973 0.000008035 0.000009334
     266
 0.000007998 0.000007944 0.000009314
     267
 0.000008019 0.000007854 0.000009292
     268
 0.000008036 0.000007767 0.000009269
     269
 0.000008048 0.000007682 0.000009246
     270
 0.000008055 0.000007600 0.000009222
     271
 0.000008056 0.000007522 0.000009199
     272
 0.000008052 0.000007448 0.000009178
     273
 0.000008041 0.000007377 0.000009158
     274
 0.000008024 0.000007311 0.000009141
     275
 0.000008002 0.000007250 0.000009127
     276
 0.000007973 0.000007194 0.000009116
     277
 0.000007939 0.000007142 0.000009108
     278
 0.000007900 0.000007095 0.000009104
     279
 0.000007855 0.000007054 0.000009104
     280
 0.000007807 0.000007016 0.000009108
     281
 0.000007754 0.000006984 0.000009116
     282
 0.000007699 0.000006956 0.000009128
     283
 0.000007640 0.000006932 0.000009143
     284
 0.000007580 0.000006912 0.000009162
     285
 0.000007518 0.000006896 0.000009184
     286
 0.000007456 0.000006883 0.000009208
     287
 0.000007394 0.000006873 0.000009234
     288
 0.000007333 0.000006866 0.000009263
     289
 0.000007273 0.000006861 0.000009292
     290
 0.000007216 0.000006858 0.000009322
     291
 0.000007161 0.000006857 0.000009352
     292
 0.000007109 0.000006856 0.000009381
     293
 0.000007062 0.000006857 0.000009409
     294
 0.000007018 0.000006859 0.000009435
     295
 0.000006980 0.000006861 0.000009459
     296
 0.000006947 0.000006863 0.000009480
     297
 0.000006919 0.000006865 0.000009498
     298
 0.000006898 0.000006867 0.000009512
     299
 0.000006882 0.000006868 0.000009522
     300
 0.000006872 0.000006869 0.000009528
     301
 0.000006869 0.000006869 0.000009531
     302
 0.000006869 0.000006870 0.000009530
     303
 0.000006870 0.000006874 0.000009526
     304
 0.000006871 0.000006880 0.000009521
     305
 0.000006873 0.000006889 0.000009514
     306
 0.000006875 0.000006900 0.000009505
     307
 0.000006877 0.000006914 0.000009494
     308
 0.000006880 0.000006930 0.000009481
     309
 0.000006884 0.000006950 0.000009468
     310
 0.000006887 0.000006972 0.000009452
     311
 0.000006891 0.000006998 0.000009436
     312
 0.000006896 0.000007027 0.000009419
     313
 0.000006901 0.000007059 0.000009402
     314
 0.000006906 0.000007095 0.000009384
     315
 0.000006911 0.000007134 0.000009366
     316
 0.000006917 0.000007178 0.000009348
     317
 0.000006922 0.000007225 0.000009331
     318
 0.000006928 0.000007276 0.000009314
     319
 0.000006934 0.000007332 0.000009298
     320
 0.000006941 0.000007391 0.000009283
     321
 0.000006947 0.000007455 0.000009270
     322
 0.000006953 0.000007524 0.000009258
     323
 0.000006959 0.000007596 0.000009248
     324
 0.000006965 0.000007673 0.000009240
     325
 0.000006971 0.000007753 0.000009234
     326
 0.000006976 0.000007838 0.000009229
     327
 0.000006982 0.000007927 0.000009227
     328
 0.000006986 0.000008020 0.000009227
     329
 0.000006991 0.000008116 0.000009229
     330
 0.000006995 0.000008216 0.000009233
     331
 0.000006998 0.000008319 0.000009239
     332
 0.000007000 0.000008424 0.000009247
     333
 0.000007002 0.000008532 0.000009257
     334
 0.000007003 0.000008642 0.000009269
     335
 0.000007004 0.000008754 0.000009282
     336
 0.000007003 0.000008867 0.000009296
     337
 0.000007001 0.000008980 0.000009311
     338
 0.000006998 0.000009094 0.000009327
     339
 0.000006994 0.000009208 0.000009344
     340
 0.000006989 0.000009321 0.000009361
     341
 0.000006983 0.000009434 0.000009378
     342
 0.000006975 0.000009544 0.000009394
     343
 0.000006966 0.000009652 0.000009410
     344
 0.000006955 0.000009758 0.000009425
     345
 0.000006944 0.000009860 0.000009438
     346
 0.000006930 0.000009958 0.000009450
     347
 0.000006916 0.000010052 0.000009460
     348
 0.000006899 0.000010142 0.000009468
     349
 0.000006882 0.000010226 0.000009473
     350
 0.000006862 0.000010305 0.000009476
     351
 0.000006841 0.000010377 0.000009475
     352
 0.000006844 0.000010273 0.000009467
     353
 0.000006808 0.000010113 0.000009425
     354
 0.000006733 0.000009911 0.000009339
     355
 0.000006619 0.000009675 0.000009207
     356
 0.000006469 0.000009407 0.000009031
     357
 0.000006285 0.000009108 0.000008821
     358
 0.000006072 0.000008780 0.000008585
     359
 0.000005836 0.000008421 0.000008336
     360
 0.000005581 0.000008032 0.000008083
     361
 0.000005316 0.000007613 0.000007836
     362
 0.000005047 0.000007170 0.000007599
     363
 0.000004780 0.000006711 0.000007372
     364
 0.000004521 0.000006244 0.000007151
     365
 0.000004274 0.000005782 0.000006928
     366
 0.000004043 0.000005336 0.000006697
     367
 0.000003830 0.000004914 0.000006449
     368
 0.000003634 0.000004523 0.000006181
     369
 0.000003456 0.000004163 0.000005890
     370
 0.000003293 0.000003834 0.000005579
     371
 0.000003143 0.000003534 0.000005252
     372
 0.000003004 0.000003258 0.000004913
     373
 0.000002872 0.000003004 0.000004569
     374
 0.000002744 0.000002768 0.000004224
     375
 0.000002618 0.000002547 0.000003885
     376
 0.000002492 0.000002341 0.000003555
     377
 0.000002364 0.000002147 0.000003239
     378
 0.000002233 0.000001966 0.000002939
     379
 0.000002097 0.000001796 0.000002657
     380
 0.000001958 0.000001635 0.000002393
     381
 0.000001813 0.000001484 0.000002149
     382
 0.000001665 0.000001341 0.000001923
     383
 0.000001514 0.000001205 0.000001714
     384
 0.000001361 0.000001075 0.000001521
     385
 0.000001208 0.000000951 0.000001342
     386
 0.000001056 0.000000832 0.000001177
     387
 0.000000909 0.000000719 0.000001023
     388
 0.000000768 0.000000612 0.000000880
     389
 0.000000635 0.000000512 0.000000748
     390
 0.000000514 0.000000420 0.000000626
     391
 0.000000405 0.000000337 0.000000515
     392
 0.000000310 0.000000263 0.000000414
     393
 0.000000230 0.000000199 0.000000324
     394
 0.000000164 0.000000146 0.000000246
     395
 0.000000111 0.000000102 0.000000179
     396
 0.000000071 0.000000067 0.000000123
     397
 0.000000042 0.000000041 0.000000078
     398
 0.000000022 0.000000022 0.000000043
     399
 0.000000010 0.000000009 0.000000019
     400
 0.000000002 0.000000002 0.000000005
     401
-0.000000000-0.000000000-0.000000000

     MATDYN       :      1.62s CPU      1.63s WALL


   This run was terminated on:  15:12:16  22Jul2020            

=------------------------------------------------------------------------------=
   JOB DONE.
=------------------------------------------------------------------------------=
